10k_random_sample_set_5000K05001
GAUSSIAN             16 MOL ORBITALS    156 PRIMITIVES        8 NUCLEI   B3LYP
C      1    (CENTRE  1)   0.26456166  5.10037081  1.70264324  CHARGE = 6.0
O      2    (CENTRE  2)  -0.92218635  6.16050717  3.56213374  CHARGE = 8.0
N      3    (CENTRE  3)   2.19586176  3.75866526  2.71553644  CHARGE = 7.0
N      4    (CENTRE  4)   1.13005622  6.25310375 -0.40440139  CHARGE = 7.0
H      5    (CENTRE  5)   2.02389668  7.52677915  0.81825141  CHARGE = 1.0
H      6    (CENTRE  6)   2.73821315  5.68807563 -0.43085756  CHARGE = 1.0
H      7    (CENTRE  7)   2.25822272  3.70386320  4.62227010  CHARGE = 1.0
H      8    (CENTRE  8)   3.51111114  3.79268033  1.95397681  CHARGE = 1.0
CENTRE ASSIGNMENTS    1  1  1  1  1  1  1  1  1  1  1  1  1  1  1  1  1  1  1  1
CENTRE ASSIGNMENTS    1  1  1  1  1  1  1  1  1  1  1  1  2  2  2  2  2  2  2  2
CENTRE ASSIGNMENTS    2  2  2  2  2  2  2  2  2  2  2  2  2  2  2  2  2  2  2  2
CENTRE ASSIGNMENTS    2  2  2  2  3  3  3  3  3  3  3  3  3  3  3  3  3  3  3  3
CENTRE ASSIGNMENTS    3  3  3  3  3  3  3  3  3  3  3  3  3  3  3  3  4  4  4  4
CENTRE ASSIGNMENTS    4  4  4  4  4  4  4  4  4  4  4  4  4  4  4  4  4  4  4  4
CENTRE ASSIGNMENTS    4  4  4  4  4  4  4  4  5  5  5  5  5  5  5  6  6  6  6  6
CENTRE ASSIGNMENTS    6  6  7  7  7  7  7  7  7  8  8  8  8  8  8  8
TYPE ASSIGNMENTS      1  1  1  1  1  1  1  1  1  2  2  2  3  3  3  4  4  4  1  2
TYPE ASSIGNMENTS      3  4  1  2  3  4  5  6  7  8  9 10  1  1  1  1  1  1  1  1
TYPE ASSIGNMENTS      1  2  2  2  3  3  3  4  4  4  1  2  3  4  1  2  3  4  5  6
TYPE ASSIGNMENTS      7  8  9 10  1  1  1  1  1  1  1  1  1  2  2  2  3  3  3  4
TYPE ASSIGNMENTS      4  4  1  2  3  4  1  2  3  4  5  6  7  8  9 10  1  1  1  1
TYPE ASSIGNMENTS      1  1  1  1  1  2  2  2  3  3  3  4  4  4  1  2  3  4  1  2
TYPE ASSIGNMENTS      3  4  5  6  7  8  9 10  1  1  1  1  2  3  4  1  1  1  1  2
TYPE ASSIGNMENTS      3  4  1  1  1  1  2  3  4  1  1  1  1  2  3  4
EXPONENTS  3.0475250D+03 4.5736950D+02 1.0394870D+02 2.9210160D+01 9.2866630D+00
EXPONENTS  3.1639270D+00 7.8682720D+00 1.8812890D+00 5.4424930D-01 7.8682720D+00
EXPONENTS  1.8812890D+00 5.4424930D-01 7.8682720D+00 1.8812890D+00 5.4424930D-01
EXPONENTS  7.8682720D+00 1.8812890D+00 5.4424930D-01 1.6871450D-01 1.6871450D-01
EXPONENTS  1.6871450D-01 1.6871450D-01 4.3800000D-02 4.3800000D-02 4.3800000D-02
EXPONENTS  4.3800000D-02 8.0000000D-01 8.0000000D-01 8.0000000D-01 8.0000000D-01
EXPONENTS  8.0000000D-01 8.0000000D-01 5.4846720D+03 8.2523490D+02 1.8804700D+02
EXPONENTS  5.2964500D+01 1.6897570D+01 5.7996350D+00 1.5539620D+01 3.5999340D+00
EXPONENTS  1.0137620D+00 1.5539620D+01 3.5999340D+00 1.0137620D+00 1.5539620D+01
EXPONENTS  3.5999340D+00 1.0137620D+00 1.5539620D+01 3.5999340D+00 1.0137620D+00
EXPONENTS  2.7000580D-01 2.7000580D-01 2.7000580D-01 2.7000580D-01 8.4500000D-02
EXPONENTS  8.4500000D-02 8.4500000D-02 8.4500000D-02 8.0000000D-01 8.0000000D-01
EXPONENTS  8.0000000D-01 8.0000000D-01 8.0000000D-01 8.0000000D-01 4.1735110D+03
EXPONENTS  6.2745790D+02 1.4290210D+02 4.0234330D+01 1.2820210D+01 4.3904370D+00
EXPONENTS  1.1626360D+01 2.7162800D+00 7.7221840D-01 1.1626360D+01 2.7162800D+00
EXPONENTS  7.7221840D-01 1.1626360D+01 2.7162800D+00 7.7221840D-01 1.1626360D+01
EXPONENTS  2.7162800D+00 7.7221840D-01 2.1203150D-01 2.1203150D-01 2.1203150D-01
EXPONENTS  2.1203150D-01 6.3900000D-02 6.3900000D-02 6.3900000D-02 6.3900000D-02
EXPONENTS  8.0000000D-01 8.0000000D-01 8.0000000D-01 8.0000000D-01 8.0000000D-01
EXPONENTS  8.0000000D-01 4.1735110D+03 6.2745790D+02 1.4290210D+02 4.0234330D+01
EXPONENTS  1.2820210D+01 4.3904370D+00 1.1626360D+01 2.7162800D+00 7.7221840D-01
EXPONENTS  1.1626360D+01 2.7162800D+00 7.7221840D-01 1.1626360D+01 2.7162800D+00
EXPONENTS  7.7221840D-01 1.1626360D+01 2.7162800D+00 7.7221840D-01 2.1203150D-01
EXPONENTS  2.1203150D-01 2.1203150D-01 2.1203150D-01 6.3900000D-02 6.3900000D-02
EXPONENTS  6.3900000D-02 6.3900000D-02 8.0000000D-01 8.0000000D-01 8.0000000D-01
EXPONENTS  8.0000000D-01 8.0000000D-01 8.0000000D-01 1.8731140D+01 2.8253940D+00
EXPONENTS  6.4012170D-01 1.6127780D-01 1.1000000D+00 1.1000000D+00 1.1000000D+00
EXPONENTS  1.8731140D+01 2.8253940D+00 6.4012170D-01 1.6127780D-01 1.1000000D+00
EXPONENTS  1.1000000D+00 1.1000000D+00 1.8731140D+01 2.8253940D+00 6.4012170D-01
EXPONENTS  1.6127780D-01 1.1000000D+00 1.1000000D+00 1.1000000D+00 1.8731140D+01
EXPONENTS  2.8253940D+00 6.4012170D-01 1.6127780D-01 1.1000000D+00 1.1000000D+00
EXPONENTS  1.1000000D+00
MO    1     MO 0.00000000 OCC NO =    2.0000000  ORB. ENERGY =  -19.136714
 -1.18907170D-05 -2.19360510D-05 -3.54115880D-05 -4.60953660D-05 -3.93332590D-05
 -1.35808290D-05 -1.44515690D-04 -6.66071500D-05  1.86773400D-04 -2.15686430D-04
 -1.65374670D-04 -8.25335520D-05  2.00588980D-04  1.53798910D-04  7.67564340D-05
  4.03699000D-04  3.09530780D-04  1.54477550D-04 -4.17305820D-05 -1.82803830D-05
 -2.24598710D-05 -2.99699310D-05  1.73392350D-04 -1.65327860D-05  2.42965090D-05
  4.95124600D-05 -1.41757530D-04 -1.28362080D-04 -1.02798780D-04 -6.10727140D-05
  2.78780400D-05  1.27276470D-05  8.25590530D-01  1.51952730D+00  2.45888200D+00
  3.23226920D+00  2.77229850D+00  9.47895950D-01 -1.56218860D-02 -6.97045530D-03
  2.05838480D-02  1.40094290D-03  1.07935100D-03  4.73893220D-04 -1.58278290D-03
 -1.21944890D-03 -5.35403750D-04 -2.77525800D-03 -2.13818670D-03 -9.38779130D-04
  3.89299850D-03 -5.44130880D-05  8.36896420D-05  1.44187260D-04 -7.22058930D-04
 -9.42812600D-06  4.96822290D-06  1.12676710D-06 -9.48043400D-03 -9.47964940D-03
 -9.52443510D-03  5.28806640D-05  8.07822370D-05 -1.08733190D-04 -1.45500200D-05
 -2.67950780D-05 -4.32935460D-05 -5.66619440D-05 -4.85360330D-05 -1.66969580D-05
  2.54380290D-05  1.25753110D-05 -3.31728650D-05  1.81877080D-05  1.41594210D-05
  6.72339410D-06 -1.09516820D-04 -8.52605940D-05 -4.04847460D-05  3.15961370D-05
  2.45980980D-05  1.16800470D-05  1.02615350D-04 -1.48952570D-05  3.47295620D-05
 -1.02939660D-05 -2.93829890D-05 -1.16559930D-06 -3.35261200D-06 -2.46509850D-05
 -1.94219660D-04 -7.97532260D-05 -1.17866120D-05  1.67497460D-04  1.27704530D-04
 -9.86928430D-05  3.19046800D-06  5.87551340D-06  9.49322900D-06  1.24245960D-05
  1.06427800D-05  3.66123960D-06 -2.49445420D-05 -1.23313550D-05  3.25293250D-05
  5.74799260D-06  4.47490410D-06  2.12484270D-06 -6.39034680D-05 -4.97498700D-05
 -2.36229980D-05  2.77431510D-05  2.15984860D-05  1.02557250D-05  1.17798770D-05
 -6.68843390D-06  1.01463170D-05  2.62045340D-05  1.44322680D-05 -2.74023650D-06
 -1.82606610D-05 -1.44661170D-05 -1.28175040D-05  5.34691170D-05 -1.83104100D-05
  1.43174510D-05  1.01834380D-04 -7.54980120D-05 -2.15911070D-06 -3.66226040D-06
 -4.16935400D-06  4.45944470D-05  2.65315590D-05  1.80132850D-05  1.94376850D-05
  4.64337950D-06  7.87605050D-06  8.96660510D-06 -2.23532150D-05 -6.58966340D-07
  1.16090090D-05 -3.82697190D-05 -1.05304370D-05 -1.78616140D-05 -2.03348160D-05
  6.11980280D-05  3.10669690D-05 -3.26305240D-05  4.42948790D-05  2.04331750D-05
  3.46585320D-05  3.94575130D-05 -2.11038850D-05 -5.34327420D-05 -6.35262610D-05
  8.16355840D-05
MO    2     MO 0.00000000 OCC NO =    2.0000000  ORB. ENERGY =  -14.370228
  3.04906170D-06  5.62492340D-06  9.08037040D-06  1.18199440D-05  1.00859800D-05
  3.48244650D-06 -1.27615280D-04 -5.88177640D-05  1.64931150D-04  1.01138950D-04
  7.75469280D-05  3.87013520D-05  1.65742320D-04  1.27080700D-04  6.34221740D-05
 -2.61263940D-04 -2.00320620D-04 -9.99740280D-05  2.04024530D-04  7.09108950D-05
  2.67332250D-05 -7.31005260D-05  1.73222150D-04  1.40008170D-05  1.56510610D-05
 -3.17993500D-05 -1.41644140D-04 -1.03710320D-04 -2.55812340D-04 -1.05880730D-04
  1.90983910D-04  1.50899320D-04 -8.35851360D-06 -1.53841270D-05 -2.48944210D-05
 -3.27244140D-05 -2.80675390D-05 -9.59676840D-06  1.67877310D-05  7.49065270D-06
 -2.21199980D-05 -2.33605390D-05 -1.79980360D-05 -7.90210730D-06 -3.79329250D-05
 -2.92252740D-05 -1.28314690D-05  7.46763650D-05  5.75341130D-05  2.52605750D-05
  5.26169760D-05  2.76619990D-06 -2.39538620D-05 -2.14324770D-05  4.23881670D-05
 -1.25162950D-06 -9.78213660D-06 -4.46590280D-06 -7.95732660D-05  3.31510620D-05
 -7.70623580D-05 -5.69989950D-05  2.28810010D-05  1.01617160D-04 -2.92354150D-04
 -5.38394600D-04 -8.69898990D-04 -1.13851080D-03 -9.75236520D-04 -3.35492660D-04
  5.79402770D-05  2.86428240D-05 -7.55579350D-05  7.14810670D-05  5.56491520D-05
  2.64241860D-05 -1.06394260D-04 -8.28296310D-05 -3.93304390D-05  1.03782600D-04
  8.07964130D-05  3.83649950D-05  2.53240580D-05 -3.04733390D-06  2.12571930D-05
 -3.56439910D-05 -3.88198940D-05 -9.82561250D-06 -7.28940550D-06  1.14673450D-05
 -3.29066060D-05 -7.10554180D-05 -5.37050180D-05  2.50317620D-05 -1.06331640D-04
 -1.01529640D-04  6.74010200D-01  1.24124610D+00  2.00551560D+00  2.62478870D+00
  2.24836680D+00  7.73464220D-01 -1.82873120D-02 -9.04034820D-03  2.38478590D-02
  2.98766490D-03  2.32594490D-03  1.10444090D-03 -1.29609770D-03 -1.00903280D-03
 -4.79124450D-04  3.32307540D-03  2.58706730D-03  1.22843100D-03  6.94989790D-04
 -1.15169220D-04  9.32128570D-05 -3.11947340D-04 -4.13285510D-04  1.74837510D-05
  8.66461470D-06 -1.30067890D-05 -8.63810920D-03 -9.20537740D-03 -9.28891770D-03
 -3.89609240D-04  7.39188880D-05  9.00773480D-05  5.51386860D-05  9.35256480D-05
  1.06475640D-04  6.34975440D-05  1.41957890D-04  2.67153060D-04  2.24635590D-04
 -7.45316560D-05 -1.26419800D-04 -1.43924470D-04  5.75574570D-05  1.11243690D-03
 -3.78881000D-04 -9.70010970D-05  7.79518480D-06  1.32221090D-05  1.50529040D-05
  7.32677250D-06  2.81294360D-05  2.83004260D-07 -2.44045850D-05 -2.17549850D-05
 -3.69005720D-05 -4.20099970D-05  4.94479050D-05  1.58839750D-05 -3.63369530D-05
  4.26613020D-05
MO    3     MO 0.00000000 OCC NO =    2.0000000  ORB. ENERGY =  -14.357382
  6.27280930D-06  1.15721080D-05  1.86809710D-05  2.43170730D-05  2.07498030D-05
  7.16440830D-06 -4.68629090D-05 -2.15990720D-05  6.05660520D-05  3.36644380D-04
  2.58117560D-04  1.28818750D-04 -2.42050680D-04 -1.85589110D-04 -9.26219740D-05
  1.95773730D-04  1.50106880D-04  7.49138550D-05  8.10551050D-05  3.35005600D-05
  2.22043620D-05 -1.79238450D-06  7.72362300D-05  1.00472200D-05 -9.60310390D-06
  4.74690630D-06  7.10218250D-05 -2.89017470D-05 -1.27265550D-05 -1.81662390D-04
  6.16249050D-05 -3.15571130D-05  2.01996900D-06  3.71782130D-06  6.01613660D-06
  7.90837990D-06  6.78297150D-06  2.31921320D-06 -4.57024640D-06 -2.03923500D-06
  6.02188840D-06 -9.36166820D-05 -7.21266060D-05 -3.16674650D-05  8.58514270D-05
  6.61438970D-05  2.90407330D-05  1.35894050D-05  1.04699040D-05  4.59685190D-06
 -2.87599020D-05 -2.84660590D-05  4.49042150D-06  1.57008890D-05  1.44729440D-05
  3.10627140D-06 -6.51700040D-06 -1.84623970D-06 -4.44450720D-05 -2.16346550D-05
 -1.10633650D-05  2.53598210D-05  4.82884550D-05 -6.65448020D-06  6.73864620D-01
  1.24097800D+00  2.00508240D+00  2.62422180D+00  2.24788110D+00  7.73297160D-01
 -1.85056010D-02 -9.14825940D-03  2.41325220D-02  1.77038130D-03  1.37827010D-03
  6.54451420D-04  7.51461200D-04  5.85024550D-04  2.77790350D-04 -9.90381850D-04
 -7.71028080D-04 -3.66111410D-04  1.15117950D-03  4.63626850D-05 -7.11307550D-05
 -1.59111630D-06 -1.91689050D-04  2.00716940D-05 -1.77429530D-06  8.92901590D-06
 -9.30684300D-03 -9.94650160D-03 -9.78635500D-03  1.34581970D-04 -8.48503220D-04
  2.17731960D-05  2.80027450D-04  5.15693950D-04  8.33220940D-04  1.09050710D-03
  9.34117050D-04  3.21347090D-04 -1.04189790D-05 -5.15063130D-06  1.35870350D-05
 -3.42758820D-05 -2.66843220D-05 -1.26706600D-05  7.34306300D-05  5.71669180D-05
  2.71448750D-05 -7.59796050D-05 -5.91513360D-05 -2.80871470D-05 -4.46762570D-05
  1.20318760D-06  1.83440800D-05 -8.10577410D-06  1.53558700D-05 -4.00344440D-06
  1.32883200D-08  5.89384190D-06  2.50411000D-06 -4.81631880D-05 -2.84297650D-05
  2.81210690D-05  6.07146250D-06  7.48100580D-05 -7.25849540D-06 -1.23117820D-05
 -1.40165290D-05 -4.00604770D-05  1.63805020D-05  9.57594490D-05 -4.98255130D-05
 -1.04488990D-05 -1.77233100D-05 -2.01773620D-05  4.25047490D-05 -1.15353390D-05
  2.65465420D-05 -3.56076290D-05  8.37728820D-05  1.42094660D-04  1.61769750D-04
 -7.82545100D-05  5.41814630D-05  1.12499430D-05 -1.30904530D-04 -1.01385690D-04
 -1.71969320D-04 -1.95780990D-04 -1.43522600D-04  8.12211130D-04 -2.24917950D-05
 -4.70100950D-04
MO    4     MO 0.00000000 OCC NO =    2.0000000  ORB. ENERGY =  -10.345539
  5.32674140D-01  9.82679780D-01  1.58634990D+00  2.06495620D+00  1.76203080D+00
  6.08386910D-01 -1.98537770D-02 -9.15058760D-03  2.56592030D-02  7.26988360D-04
  5.57408570D-04  2.78185940D-04  8.28460000D-05  6.35210580D-05  3.17014600D-05
 -4.52001900D-04 -3.46566390D-04 -1.72960920D-04 -3.99034360D-03 -4.00747060D-04
 -1.98054300D-04 -2.02972130D-04 -3.91067560D-04 -3.08318630D-05  8.83674270D-06
  1.19260800D-05 -9.64728460D-03 -9.75520870D-03 -9.47439450D-03 -1.15278510D-04
 -4.67224210D-04 -3.27273510D-04 -1.11914750D-04 -2.05982880D-04 -3.33319180D-04
 -4.38157390D-04 -3.75805050D-04 -1.28494130D-04  1.23857640D-04  5.52650380D-05
 -1.63198400D-04 -2.37726650D-04 -1.83155570D-04 -8.04151590D-05 -5.48829980D-05
 -4.22843920D-05 -1.85651250D-05  1.88835100D-04  1.45487270D-04  6.38767460D-05
  5.74817610D-04  2.62567730D-04  1.26917960D-05 -1.82945180D-04  4.82765380D-04
  7.14031550D-05 -5.66708450D-05 -1.02421990D-04  8.26901820D-05 -1.59335240D-04
 -1.23378750D-04  2.08106360D-04 -1.38616310D-04 -2.71935470D-04 -1.47182620D-04
 -2.71049090D-04 -4.37941480D-04 -5.73171250D-04 -4.90972550D-04 -1.68900240D-04
  2.08148900D-04  1.02898580D-04 -2.71439870D-04  6.22701730D-07  4.84783240D-07
  2.30192230D-07 -2.30383060D-04 -1.79356890D-04 -8.51649980D-05  1.58136920D-04
  1.23112120D-04  5.84579880D-05  1.14830730D-03 -1.31279460D-04  3.08342980D-04
 -1.24289540D-04  4.79372560D-04 -2.92688590D-05  2.28640020D-05 -3.64525900D-05
 -3.77661360D-04 -7.75426450D-05 -3.34619550D-04  1.90962810D-04 -1.52089500D-04
  1.25156150D-04 -9.10457700D-05 -1.67668390D-04 -2.70906440D-04 -3.54558300D-04
 -3.03710960D-04 -1.04480090D-04  9.80443320D-06  4.84682980D-06 -1.27856260D-05
  8.25340170D-05  6.42540500D-05  3.05100960D-05  2.47999040D-04  1.93071210D-04
  9.16770400D-05 -4.45201740D-04 -3.46596660D-04 -1.64576360D-04  5.50176750D-04
 -3.32071710D-05 -7.67357560D-05  2.05434670D-04  2.83838840D-04 -8.80101910D-06
 -4.48376190D-05  1.45562190D-05 -4.20304720D-05 -1.17456820D-04 -2.53352850D-04
 -1.34219720D-04  1.31554580D-04  4.98468720D-04  4.96946470D-05  8.42915280D-05
  9.59629250D-05  1.69056400D-04 -1.60877420D-04 -2.97528180D-04  4.30890140D-04
  4.46932090D-05  7.58081420D-05  8.63048900D-05 -1.16440110D-04 -7.43364370D-05
 -1.44758280D-04  2.13049660D-04  1.02022920D-05  1.73050190D-05  1.97011520D-05
 -1.73177710D-04 -1.07426920D-04 -5.55505550D-05 -1.39412560D-04  1.95422260D-05
  3.31473140D-05  3.77370450D-05 -2.59386670D-04 -2.42526160D-04  6.55244930D-06
 -6.77208040D-05
MO    5     MO 0.00000000 OCC NO =    2.0000000  ORB. ENERGY =   -1.093780
 -7.04440470D-02 -1.29955510D-01 -2.09788490D-01 -2.73082280D-01 -2.33021610D-01
 -8.04567600D-02 -1.02345280D-01 -4.71708450D-02  1.32271970D-01  7.61445510D-02
  5.83828120D-02  2.91371150D-02  5.15119320D-02  3.94960820D-02  1.97113130D-02
  1.84820050D-02  1.41708290D-02  7.07223700D-03  1.46793440D-02  8.86069280D-04
 -8.81240130D-04 -1.33000680D-03  3.22835540D-03  1.17570370D-05  1.47011860D-04
 -1.47799350D-04 -1.66108420D-03 -1.18077930D-02  1.68423310D-03 -9.60752050D-03
 -2.09676910D-02 -5.59904930D-03 -7.63416150D-02 -1.40509330D-01 -2.27370610D-01
 -2.98885030D-01 -2.56351960D-01 -8.76510880D-02 -1.22778130D-01 -5.47833620D-02
  1.61776000D-01  1.55307510D-01  1.19656060D-01  5.25354570D-02 -1.08590290D-01
 -8.36629640D-02 -3.67325480D-02 -1.93304520D-01 -1.48930710D-01 -6.53886030D-02
  5.06555100D-02  5.63975790D-03 -3.64854670D-03 -7.34193040D-03 -2.07116280D-03
 -1.80153420D-04  1.12717830D-04  3.51336330D-04 -7.38707790D-04 -3.22021490D-03
  3.05448550D-03 -4.70613990D-03 -1.26203920D-02  9.95710850D-03 -6.87505180D-02
 -1.26609820D-01 -2.04566980D-01 -2.67734200D-01 -2.29338340D-01 -7.88950460D-02
 -9.94417750D-02 -4.91591250D-02  1.29678620D-01 -3.95125570D-02 -3.07611570D-02
 -1.46064850D-02  1.09557140D-01  8.52919840D-02  4.04996510D-02 -7.97212600D-02
 -6.20642740D-02 -2.94703130D-02  4.02630670D-02 -2.56584280D-03  5.23583510D-03
 -2.60136210D-03 -1.46552550D-03  3.88396990D-04 -1.55597280D-04  3.05568770D-04
 -1.32390450D-03 -5.28439530D-03 -5.10154670D-03 -1.05721100D-02  4.31567450D-03
 -1.23998140D-02 -7.48500020D-02 -1.37842530D-01 -2.22715980D-01 -2.91487340D-01
 -2.49685030D-01 -8.58945430D-02 -1.13520230D-01 -5.61188240D-02  1.48037860D-01
  8.06854340D-02  6.28148990D-02  2.98267360D-02 -7.42057050D-02 -5.77703260D-02
 -2.74313940D-02  2.03132520D-01  1.58141910D-01  7.50913720D-02  4.30053410D-02
  1.43731130D-03 -2.40069440D-03  7.48222900D-03 -3.59619930D-03  4.19174890D-04
  2.00229480D-04 -3.76744240D-04 -5.93739440D-03 -8.60390830D-03  4.99137620D-03
  1.02011300D-03  1.85408640D-03 -1.18815960D-02  1.78348310D-02  3.02512480D-02
  3.44399770D-02  1.28720710D-03 -6.67127270D-03 -1.65681280D-02 -5.10000250D-03
  2.17695240D-02  3.69252330D-02  4.20380730D-02  8.84967240D-04 -1.68551130D-02
  4.62413600D-03  9.23956670D-03  9.51864270D-03  1.61454200D-02  1.83809900D-02
 -6.43679980D-04 -5.65397080D-04  1.84588110D-03 -1.25848780D-02  1.81059450D-02
  3.07111090D-02  3.49635120D-02 -1.14882950D-04 -1.54687890D-02  2.79413950D-03
  4.59949170D-03
MO    6     MO 0.00000000 OCC NO =    2.0000000  ORB. ENERGY =   -0.979182
 -1.64447920D-02 -3.03374300D-02 -4.89740180D-02 -6.37496200D-02 -5.43976660D-02
 -1.87822070D-02 -2.54399010D-02 -1.17252270D-02  3.28787610D-02 -1.64591200D-01
 -1.26198100D-01 -6.29816940D-02  2.94647720D-02  2.25917180D-02  1.12748510D-02
  2.59293370D-01  1.98809710D-01  9.92199810D-02  4.97993140D-03  9.12810350D-04
 -3.65897080D-04 -3.33917620D-03  6.67387470D-04 -8.61512190D-05  6.17025090D-05
  6.48956720D-04 -6.88683180D-03 -3.79126590D-03  1.83719290D-03 -2.34698560D-02
 -6.51001850D-03  3.94611080D-02 -1.36105790D-01 -2.50507300D-01 -4.05368100D-01
 -5.32867720D-01 -4.57037550D-01 -1.56268900D-01 -2.19962510D-01 -9.81468420D-02
  2.89828940D-01  1.74210660D-01  1.34219930D-01  5.89297770D-02 -1.76284860D-01
 -1.35817980D-01 -5.96314100D-02 -2.52191820D-01 -1.94300200D-01 -8.53082540D-02
  9.83103810D-02  8.02905330D-03 -7.30170120D-03 -8.89258610D-03 -1.08370970D-03
  1.42280980D-04 -1.65370980D-05 -3.36276750D-04 -5.20867520D-03 -4.65771390D-03
 -1.71421960D-03 -6.41886200D-03 -1.03815150D-02  1.36648360D-02  4.31976920D-03
  7.95521600D-03  1.28534620D-02  1.68224180D-02  1.44099090D-02  4.95717560D-03
  4.09094290D-03  2.02236110D-03 -5.33485890D-03 -7.45321320D-02 -5.80244550D-02
 -2.75520640D-02  5.53166050D-03  4.30648610D-03  2.04487190D-03  7.70264330D-02
  5.99663080D-02  2.84741240D-02 -2.66246020D-03 -2.68281890D-03 -4.11563530D-04
  4.68702030D-03 -7.27014850D-04  9.81481230D-05 -5.60071660D-05 -2.70402850D-04
  3.62770020D-03  1.93374670D-03 -1.83815350D-03 -5.07138660D-03  1.82300610D-03
  6.64016000D-03  8.01827680D-02  1.47663270D-01  2.38583610D-01  3.12254660D-01
  2.67474100D-01  9.20141890D-02  1.23574830D-01  6.10893190D-02 -1.61149710D-01
 -1.60618820D-01 -1.25044310D-01 -5.93754630D-02  6.45533240D-02  5.02557940D-02
  2.38632280D-02 -1.36509070D-01 -1.06274490D-01 -5.04628860D-02 -5.37047130D-02
 -4.59496500D-03  3.66502660D-03 -5.67597480D-03  4.70824340D-05 -3.02642590D-04
 -1.09141860D-04 -5.09513570D-04  4.37856230D-03  7.10963620D-03  7.60918340D-03
  2.21975890D-03 -1.15354040D-02  4.96008970D-03 -1.89367680D-02 -3.21203430D-02
 -3.65678760D-02  2.08344120D-04  2.99419050D-03  1.59758740D-02  1.10285900D-02
 -2.79125170D-02 -4.73449130D-02 -5.39005100D-02 -1.33953720D-03  1.89282870D-02
 -7.51809840D-03 -9.11573570D-03  2.15738260D-03  3.65932920D-03  4.16601700D-03
  1.53809190D-05 -2.92922440D-03  1.47012240D-03 -3.34284970D-04 -6.26794210D-03
 -1.06316160D-02 -1.21037190D-02 -1.73760580D-04  3.79566320D-03 -2.04641020D-03
  9.72634070D-04
MO    7     MO 0.00000000 OCC NO =    2.0000000  ORB. ENERGY =   -0.934347
  7.74903740D-03  1.42954610D-02  2.30773060D-02  3.00397960D-02  2.56330120D-02
  8.85046310D-03  1.35967760D-02  6.26674140D-03 -1.75725970D-02  1.22429710D-01
  9.38713340D-02  4.68483740D-02 -1.70610280D-01 -1.30813140D-01 -6.52849250D-02
  7.80695060D-02  5.98587450D-02  2.98737090D-02 -2.60929840D-03  3.53957330D-04
  8.02926560D-04 -2.20557130D-03  1.81595880D-04  2.65963310D-04 -4.61506870D-04
  2.67501450D-04  1.64561210D-02  1.59288060D-03 -1.17461980D-02 -2.72138750D-02
  3.84755700D-02 -7.19316440D-03  5.33801150D-02  9.82479080D-02  1.58983660D-01
  2.08988470D-01  1.79248200D-01  6.12880030D-02  8.70341510D-02  3.88344680D-02
 -1.14678710D-01 -2.85088290D-02 -2.19645160D-02 -9.64360570D-03  8.04137290D-03
  6.19544430D-03  2.72013380D-03  1.35919210D-01  1.04718420D-01  4.59770280D-02
 -3.84927140D-02 -2.06212680D-03 -8.45093290D-05  5.15623370D-03  1.62278640D-03
  1.43769570D-04 -1.49617180D-04 -6.25833670D-05  2.68196570D-03  4.26145230D-03
 -2.21958830D-03 -1.51256850D-03  4.59257810D-03 -2.91326080D-03 -1.22986750D-01
 -2.26490370D-01 -3.65946740D-01 -4.78945620D-01 -4.10259840D-01 -1.41134140D-01
 -1.83801480D-01 -9.08624150D-02  2.39689230D-01  1.32746400D-01  1.03345200D-01
  4.90719540D-02  5.16329960D-02  4.01971120D-02  1.90870110D-02 -5.33621950D-02
 -4.15433210D-02 -1.97262380D-02  8.22931370D-02  3.36801600D-04  3.12745810D-03
 -5.43115200D-04 -2.67749300D-03  7.56873840D-04 -1.13408810D-04  8.55129550D-05
 -6.42061160D-03 -1.75970100D-02 -9.72978230D-03  1.18989880D-04 -5.41687960D-03
 -3.01228070D-03  6.26470950D-02  1.15369860D-01  1.86406260D-01  2.43965720D-01
  2.08978510D-01  7.18910280D-02  9.90471140D-02  4.89640240D-02 -1.29163960D-01
 -6.37335720D-02 -4.96176030D-02 -2.35601930D-02 -4.26323400D-03 -3.31899580D-03
 -1.57597660D-03 -1.20047700D-01 -9.34590510D-02 -4.43776630D-02 -4.41438760D-02
 -9.48901420D-04  1.76528890D-04 -4.82953050D-03  1.40275800D-03 -5.16790150D-04
  1.30251900D-04  7.20125010D-05  2.60052250D-03  7.43912760D-03  1.66304940D-03
 -3.80166640D-03  5.49908770D-04 -3.17203720D-03 -1.66636590D-02 -2.82647200D-02
 -3.21783850D-02 -1.94586550D-03  6.25433970D-03  1.27469130D-02  7.07457110D-03
 -1.63873940D-02 -2.77961220D-02 -3.16449030D-02  1.63313160D-03  1.35530050D-02
 -9.70385070D-03 -2.89393340D-04  2.26850930D-02  3.84782110D-02  4.38060830D-02
  4.14154760D-04  3.08033380D-03  9.38331370D-04 -2.72775800D-02  4.16774860D-02
  7.06929050D-02  8.04813740D-02  1.56713280D-03 -2.80018510D-02  1.26836690D-03
  1.56767900D-02
MO    8     MO 0.00000000 OCC NO =    2.0000000  ORB. ENERGY =   -0.650599
  7.00444940D-02  1.29218410D-01  2.08598590D-01  2.71533380D-01  2.31699920D-01
  8.00004150D-02  1.16577130D-01  5.37302940D-02 -1.50665350D-01 -1.57960670D-01
 -1.21114230D-01 -6.04444870D-02  1.44999270D-01  1.11176240D-01  5.54847380D-02
  7.81250340D-02  5.99013210D-02  2.98949570D-02 -5.18478790D-02 -4.05296950D-03
  2.01298600D-03  1.49256050D-04  8.37715440D-04  1.72948810D-04  2.81145680D-04
  5.64569100D-05  1.59573890D-02  1.13379950D-02  9.52192320D-03  1.19134000D-02
 -1.87641520D-02  2.26551700D-02 -6.21329710D-02 -1.14357830D-01 -1.85052560D-01
 -2.43256770D-01 -2.08639920D-01 -7.13375330D-02 -1.04082930D-01 -4.64416020D-02
  1.37142670D-01 -1.25193550D-01 -9.64548840D-02 -4.23488890D-02  1.40994190D-01
  1.08628420D-01  4.76937290D-02  1.11683940D-01  8.60464530D-02  3.77790280D-02
  6.24187370D-02 -2.75085400D-03  5.57576900D-03  2.94794620D-03  2.33170540D-03
  2.46607250D-05 -4.33562580D-04 -5.07576840D-04 -3.56150920D-03 -3.69573010D-03
 -4.22236420D-03  9.84434950D-03  7.32893400D-03 -8.13080730D-03 -1.02790540D-02
 -1.89297370D-02 -3.05852980D-02 -4.00295800D-02 -3.42889230D-02 -1.17957870D-02
 -1.10577170D-02 -5.46639150D-03  1.44199910D-02  6.85500670D-01  5.33673220D-01
  2.53406920D-01 -1.85584080D-01 -1.44480170D-01 -6.86042950D-02  8.77737520D-02
  6.83332670D-02  3.24470520D-02  9.02685730D-03  2.25625120D-02 -4.14084340D-03
  6.06871390D-03  8.21711840D-04  4.54172310D-05  8.31981260D-05  1.16124790D-04
  1.38101420D-03 -8.20104280D-03 -2.98617940D-03  1.90573600D-02 -2.92894480D-02
  7.70697340D-03 -1.88868450D-02 -3.47817040D-02 -5.61977570D-02 -7.35507830D-02
 -6.30028380D-02 -2.16737060D-02 -2.99110920D-02 -1.47865730D-02  3.90060330D-02
  4.08871290D-01  3.18312830D-01  1.51146190D-01  2.19765050D-01  1.71090600D-01
  8.12398690D-02 -2.06746260D-01 -1.60955270D-01 -7.64272540D-02  1.61129690D-02
  1.43459230D-02  9.44024830D-03 -5.04404820D-03 -1.62528940D-03 -2.34838930D-04
 -2.07926520D-04 -1.84963010D-04  1.72094460D-02 -7.63383520D-03 -1.57767320D-02
 -7.45519910D-03  1.71333810D-02  3.00902470D-02  1.68577560D-02  2.85939440D-02
  3.25531950D-02  7.65472350D-03  5.38237820D-03 -5.24350920D-03 -1.06067820D-02
  2.80667760D-02  4.76065650D-02  5.41983910D-02  1.34675780D-02 -2.67547520D-03
  1.11924200D-02  1.73589090D-03  8.86209990D-03  1.50317990D-02  1.71131720D-02
  7.18503980D-04  1.15691940D-02 -2.67120340D-03 -7.24006700D-03  3.80474350D-02
  6.45356520D-02  7.34715580D-02  1.35607000D-02 -5.13774430D-03 -1.98696480D-03
  9.66864150D-03
MO    9     MO 0.00000000 OCC NO =    2.0000000  ORB. ENERGY =   -0.597308
  1.84624350D-02  3.40595870D-02  5.49827340D-02  7.15711820D-02  6.10718200D-02
  2.10866320D-02  2.93998320D-02  1.35503560D-02 -3.79966110D-02  7.77558410D-02
  5.96182470D-02  2.97536830D-02 -1.41364890D-01 -1.08389630D-01 -5.40940220D-02
  2.75039930D-01  2.10883180D-01  1.05245490D-01 -1.82150430D-02 -2.41365430D-03
 -2.14832540D-03  7.98712520D-03 -1.18133970D-03 -7.56613690D-05  1.29657510D-04
 -6.04974640D-05 -4.06336140D-04  3.77265400D-03  5.93858710D-03  5.48179320D-03
  2.14507250D-02 -9.72444070D-03  1.32924920D-02  2.44652800D-02  3.95894420D-02
  5.20414290D-02  4.46356320D-02  1.52616800D-02  2.49855330D-02  1.11484960D-02
 -3.29216580D-02  1.69543170D-01  1.30623870D-01  5.73509160D-02 -1.78323550D-01
 -1.37388680D-01 -6.03210300D-02  1.77802440D-01  1.36987190D-01  6.01447560D-02
 -1.27487100D-02  8.48008970D-03 -7.30426560D-03  9.49191950D-03 -2.70666310D-03
 -3.41941590D-04  1.25628650D-04  4.41330590D-04  4.61117080D-03  2.75524890D-03
 -9.31064540D-03 -1.17398690D-02  9.32580570D-04 -4.65074660D-04 -1.06352380D-02
 -1.95856800D-02 -3.16451230D-02 -4.14166630D-02 -3.54770840D-02 -1.22045280D-02
 -1.86157450D-02 -9.20270920D-03  2.42761570D-02 -5.72660770D-01 -4.45825550D-01
 -2.11693740D-01  7.23768960D-02  5.63465690D-02  2.67553440D-02  6.06339150D-01
  4.72044710D-01  2.24143530D-01  2.38330380D-02 -2.08658500D-02  4.61976750D-03
  2.50924590D-02  4.06198710D-03 -4.92570830D-04  3.15884560D-04  2.63129220D-04
 -1.01965970D-02  3.15059050D-03  5.37326000D-03 -1.15062540D-02  1.79024990D-02
  9.89548880D-03 -1.07006890D-02 -1.97062130D-02 -3.18398720D-02 -4.16715470D-02
 -3.56954150D-02 -1.22796360D-02 -1.76823520D-02 -8.74128580D-03  2.30589520D-02
  4.73506460D-01  3.68632340D-01  1.75039670D-01  1.97967470D-01  1.54120840D-01
  7.31820260D-02 -2.06987960D-01 -1.61143430D-01 -7.65166000D-02  1.23804030D-02
  1.91937540D-02  7.81030340D-03 -6.52672610D-03  6.42124180D-04  1.93572040D-04
 -1.40303820D-04 -4.41317540D-05  1.47600200D-02 -3.22821640D-03 -1.18629090D-02
 -6.44616150D-03  2.38475150D-02  2.09514990D-02  1.65043290D-02  2.79944650D-02
  3.18707090D-02  7.87985380D-03  8.33305310D-03 -6.38671320D-03 -1.01501870D-02
  2.52669330D-02  4.28575010D-02  4.87917500D-02  7.49880650D-03 -3.33696070D-03
  1.71335280D-02 -5.76369940D-03  3.58412650D-02  6.07935690D-02  6.92113300D-02
  1.05439310D-02 -1.12315880D-02  2.04978540D-03 -1.25951490D-02 -4.53018380D-02
 -7.68404920D-02 -8.74801840D-02 -1.86713050D-02  1.14083280D-02  1.68234110D-03
  5.89075390D-04
MO   10     MO 0.00000000 OCC NO =    2.0000000  ORB. ENERGY =   -0.565597
 -3.42240740D-03 -6.31367330D-03 -1.01922260D-02 -1.32672500D-02 -1.13209690D-02
 -3.90885850D-03 -4.57374670D-03 -2.10803570D-03  5.91115200D-03 -1.40521730D-01
 -1.07743150D-01 -5.37713820D-02  2.77992360D-01  2.13146910D-01  1.06375250D-01
 -1.76807940D-01 -1.35565110D-01 -6.76564930D-02  1.47792230D-02 -2.72501810D-03
  7.68514030D-03  1.99326070D-05 -1.16476850D-03 -4.55895320D-04  1.27093780D-04
  1.08607540D-04 -1.94478980D-02  7.96147570D-03  1.05897190D-02  2.29376580D-02
  1.17524100D-02 -2.43187590D-02  2.62216560D-02  4.82618460D-02  7.80967760D-02
  1.02660400D-01  8.80512270D-02  3.01062100D-02  4.34035170D-02  1.93665650D-02
 -5.71897250D-02  4.34222290D-02  3.34544870D-02  1.46883220D-02  1.17813880D-01
  9.07692470D-02  3.98525880D-02 -2.09581440D-01 -1.61471200D-01 -7.08945550D-02
 -3.23966660D-02 -1.90714970D-04  7.09392560D-03 -6.17070690D-03 -3.10454710D-03
  2.96562840D-05  4.45824130D-04  2.66855310D-05  4.93734240D-05 -2.85538290D-03
  8.61337890D-03  3.18620380D-03 -2.88583680D-03 -4.04922130D-03 -1.30942880D-02
 -2.41142260D-02 -3.89620190D-02 -5.09929070D-02 -4.36799950D-02 -1.50264240D-02
 -2.42272510D-02 -1.19767620D-02  3.15939310D-02  2.15407950D-01  1.67698530D-01
  7.96291920D-02 -1.65035120D-01 -1.28482470D-01 -6.10080230D-02  6.67698520D-01
  5.19813960D-01  2.46826060D-01  1.08635910D-02  1.31015450D-02 -9.38635890D-03
  3.41835400D-02  1.59283780D-03  4.67530460D-04 -1.61316050D-04  6.86855250D-04
 -4.23559100D-03 -1.48973160D-03  7.65845370D-03  4.56156580D-03  4.21669660D-03
  1.45898590D-02 -2.09140950D-02 -3.85150540D-02 -6.22298340D-02 -8.14454760D-02
 -6.97653490D-02 -2.40000880D-02 -4.00001030D-02 -1.97740840D-02  5.21627680D-02
 -5.38193140D-01 -4.18991950D-01 -1.98952200D-01  2.30420030D-01  1.79385670D-01
  8.51786630D-02  2.96214510D-01  2.30607730D-01  1.09500710D-01  2.19298710D-02
 -2.17603430D-02  1.13425060D-02  9.35856840D-03  4.10132440D-03  4.03874810D-04