 Entering Gaussian System, Link 0=/opt/apps/apps/binapps/gaussian/g09d01_em64t/g09/g09
 Input=/net/scratch2/mbdxwym4/water_monomer_active_learning/ATOMS/O1/TRAINING_SET/WATER_MONOMER0001/WATER_MONOMER0001.gjf
 Output=/net/scratch2/mbdxwym4/water_monomer_active_learning/ATOMS/O1/TRAINING_SET/WATER_MONOMER0001/WATER_MONOMER0001.gau
 Initial command:
 /opt/apps/apps/binapps/gaussian/g09d01_em64t/g09/l1.exe "/net/scratch2/mbdxwym4/water_monomer_active_learning/ATOMS/O1/TRAINING_SET/WATER_MONOMER0001/Gau-3141.inp" -scrdir="/net/scratch2/mbdxwym4/water_monomer_active_learning/ATOMS/O1/TRAINING_SET/WATER_MONOMER0001/"
 Entering Link 1 = /opt/apps/apps/binapps/gaussian/g09d01_em64t/g09/l1.exe PID=      3147.

 Copyright (c) 1988,1990,1992,1993,1995,1998,2003,2009,2013,
            Gaussian, Inc.  All Rights Reserved.

 This is part of the Gaussian(R) 09 program.  It is based on
 the Gaussian(R) 03 system (copyright 2003, Gaussian, Inc.),
 the Gaussian(R) 98 system (copyright 1998, Gaussian, Inc.),
 the Gaussian(R) 94 system (copyright 1995, Gaussian, Inc.),
 the Gaussian 92(TM) system (copyright 1992, Gaussian, Inc.),
 the Gaussian 90(TM) system (copyright 1990, Gaussian, Inc.),
 the Gaussian 88(TM) system (copyright 1988, Gaussian, Inc.),
 the Gaussian 86(TM) system (copyright 1986, Carnegie Mellon
 University), and the Gaussian 82(TM) system (copyright 1983,
 Carnegie Mellon University). Gaussian is a federally registered
 trademark of Gaussian, Inc.

 This software contains proprietary and confidential information,
 including trade secrets, belonging to Gaussian, Inc.

 This software is provided under written license and may be
 used, copied, transmitted, or stored only in accord with that
 written license.

 The following legend is applicable only to US Government
 contracts under FAR:

                    RESTRICTED RIGHTS LEGEND

 Use, reproduction and disclosure by the US Government is
 subject to restrictions as set forth in subparagraphs (a)
 and (c) of the Commercial Computer Software - Restricted
 Rights clause in FAR 52.227-19.

 Gaussian, Inc.
 340 Quinnipiac St., Bldg. 40, Wallingford CT 06492


 ---------------------------------------------------------------
 Warning -- This program may not be used in any manner that
 competes with the business of Gaussian, Inc. or will provide
 assistance to any competitor of Gaussian, Inc.  The licensee
 of this program is prohibited from giving any competitor of
 Gaussian, Inc. access to this program.  By using this program,
 the user acknowledges that Gaussian, Inc. is engaged in the
 business of creating and licensing software in the field of
 computational chemistry and represents and warrants to the
 licensee that it is not a competitor of Gaussian, Inc. and that
 it will not use this program in any manner prohibited above.
 ---------------------------------------------------------------


 Cite this work as:
 Gaussian 09, Revision D.01,
 M. J. Frisch, G. W. Trucks, H. B. Schlegel, G. E. Scuseria,
 M. A. Robb, J. R. Cheeseman, G. Scalmani, V. Barone, B. Mennucci,
 G. A. Petersson, H. Nakatsuji, M. Caricato, X. Li, H. P. Hratchian,
 A. F. Izmaylov, J. Bloino, G. Zheng, J. L. Sonnenberg, M. Hada,
 M. Ehara, K. Toyota, R. Fukuda, J. Hasegawa, M. Ishida, T. Nakajima,
 Y. Honda, O. Kitao, H. Nakai, T. Vreven, J. A. Montgomery, Jr.,
 J. E. Peralta, F. Ogliaro, M. Bearpark, J. J. Heyd, E. Brothers,
 K. N. Kudin, V. N. Staroverov, T. Keith, R. Kobayashi, J. Normand,
 K. Raghavachari, A. Rendell, J. C. Burant, S. S. Iyengar, J. Tomasi,
 M. Cossi, N. Rega, J. M. Millam, M. Klene, J. E. Knox, J. B. Cross,
 V. Bakken, C. Adamo, J. Jaramillo, R. Gomperts, R. E. Stratmann,
 O. Yazyev, A. J. Austin, R. Cammi, C. Pomelli, J. W. Ochterski,
 R. L. Martin, K. Morokuma, V. G. Zakrzewski, G. A. Voth,
 P. Salvador, J. J. Dannenberg, S. Dapprich, A. D. Daniels,
 O. Farkas, J. B. Foresman, J. V. Ortiz, J. Cioslowski,
 and D. J. Fox, Gaussian, Inc., Wallingford CT, 2013.

 ******************************************
 Gaussian 09:  ES64L-G09RevD.01 24-Apr-2013
                15-Dec-2021
 ******************************************
 %nproc=2
 Will use up to    2 processors via shared memory.
 %mem=1GB
 -----------------------------------------------------------
 #p B3LYP/AUG-cc-pVTZ SCRF=(Solvent=Water) nosymm output=wfn
 -----------------------------------------------------------
 1/38=1/1;
 2/12=2,15=1,17=6,18=5,40=1/2;
 3/5=16,6=1,7=10,11=2,16=1,25=1,30=1,70=2201,72=1,74=-5/1,2,3;
 4//1;
 5/5=2,38=5,53=1/2;
 6/7=2,8=2,9=2,10=2,28=1/1;
 99/5=1,6=100,9=1/99;
 Leave Link    1 at Wed Dec 15 20:44:13 2021, MaxMem=   134217728 cpu:         0.9
 (Enter /opt/apps/apps/binapps/gaussian/g09d01_em64t/g09/l101.exe)
 -----------------
 WATER_MONOMER0001
 -----------------
 Symbolic Z-matrix:
 Charge =  0 Multiplicity = 1
 O                    -0.03349  -0.4669   -0.00425
 H                    -0.50428   0.20263   0.56695
 H                     0.53777   0.26427  -0.5627

 NAtoms=      3 NQM=        3 NQMF=       0 NMMI=      0 NMMIF=      0
                NMic=       0 NMicF=      0.
                    Isotopes and Nuclear Properties:
 (Nuclear quadrupole moments (NQMom) in fm**2, nuclear magnetic moments (NMagM)
  in nuclear magnetons)

  Atom         1           2           3
 IAtWgt=          16           1           1
 AtmWgt=  15.9949146   1.0078250   1.0078250
 NucSpn=           0           1           1
 AtZEff=   0.0000000   0.0000000   0.0000000
 NQMom=    0.0000000   0.0000000   0.0000000
 NMagM=    0.0000000   2.7928460   2.7928460
 AtZNuc=   8.0000000   1.0000000   1.0000000
 Leave Link  101 at Wed Dec 15 20:44:14 2021, MaxMem=   134217728 cpu:         0.9
 (Enter /opt/apps/apps/binapps/gaussian/g09d01_em64t/g09/l202.exe)
                          Input orientation:
 ---------------------------------------------------------------------
 Center     Atomic      Atomic             Coordinates (Angstroms)
 Number     Number       Type             X           Y           Z
 ---------------------------------------------------------------------
      1          8           0       -0.033487   -0.466898   -0.004249
      2          1           0       -0.504282    0.202632    0.566948
      3          1           0        0.537770    0.264266   -0.562699
 ---------------------------------------------------------------------
                    Distance matrix (angstroms):
                    1          2          3
     1  O    0.000000
     2  H    0.998090   0.000000
     3  H    1.082959   1.538108   0.000000
 Symmetry turned off by external request.
 Stoichiometry    H2O
 Framework group  CS[SG(H2O)]
 Deg. of freedom     3
 Full point group                 CS      NOp   2
 Rotational constants (GHZ):    586.7441287    416.4956595    243.5872119
 Leave Link  202 at Wed Dec 15 20:44:15 2021, MaxMem=   134217728 cpu:         1.6
 (Enter /opt/apps/apps/binapps/gaussian/g09d01_em64t/g09/l301.exe)
 Standard basis: Aug-CC-pVTZ (5D, 7F)
 Ernie: Thresh=  0.10000D-02 Tol=  0.10000D-05 Strict=F.
 Ernie:  3 primitive shells out of 52 were deleted.
    92 basis functions,   126 primitive gaussians,   105 cartesian basis functions
     5 alpha electrons        5 beta electrons
       nuclear repulsion energy         8.4946809627 Hartrees.
 IExCor=  402 DFT=T Ex+Corr=B3LYP ExCW=0 ScaHFX=  0.200000
 ScaDFX=  0.800000  0.720000  1.000000  0.810000 ScalE2=  1.000000  1.000000
 IRadAn=      0 IRanWt=     -1 IRanGd=            0 ICorTp=0 IEmpDi=  4
 NAtoms=    3 NActive=    3 NUniq=    3 SFac= 1.00D+00 NAtFMM=   60 NAOKFM=F Big=F
 Integral buffers will be    131072 words long.
 Raffenetti 2 integral format.
 Two-electron integral symmetry is turned off.
 ------------------------------------------------------------------------------
 Polarizable Continuum Model (PCM)
 =================================
 Model                : PCM (using non-symmetric T matrix).
 Atomic radii         : UFF (Universal Force Field).
 Polarization charges : Total charges.
 Charge compensation  : None.
 Solution method      : On-the-fly selection.
 Cavity type          : Scaled VdW (van der Waals Surface) (Alpha=1.100).
 Cavity algorithm     : GePol (No added spheres)
                        Default sphere list used, NSphG=    3.
                        Lebedev-Laikov grids with approx.  5.0 points / Ang**2.
                        Smoothing algorithm: Karplus/York (Gamma=1.0000).
                        Polarization charges: spherical gaussians, with
                                              point-specific exponents (IZeta= 3).
                        Self-potential: point-specific (ISelfS= 7).
                        Self-field    : sphere-specific E.n sum rule (ISelfD= 2).
 Solvent              : Water, Eps=  78.355300 Eps(inf)=   1.777849
 ------------------------------------------------------------------------------
 Spheres list:
 ISph  on   Nord     Re0    Alpha      Xe            Ye            Ze
    1   O      1    1.7500  1.100     -0.033487     -0.466898     -0.004249
    2   H      2    1.4430  1.100     -0.504282      0.202632      0.566948
    3   H      3    1.4430  1.100      0.537770      0.264266     -0.562699
 ------------------------------------------------------------------------------
 GePol: Number of generator spheres                  =       3
 GePol: Total number of spheres                      =       3
 GePol: Number of exposed spheres                    =       3 (100.00%)
 GePol: Number of points                             =     394
 GePol: Average weight of points                     =       0.14
 GePol: Minimum weight of points                     =   0.16D-07
 GePol: Maximum weight of points                     =    0.20212
 GePol: Number of points with low weight             =      10
 GePol: Fraction of low-weight points (<1% of avg)   =       2.54%
 GePol: Cavity surface area                          =     56.805 Ang**2
 GePol: Cavity volume                                =     38.544 Ang**3
 Leave Link  301 at Wed Dec 15 20:44:16 2021, MaxMem=   134217728 cpu:         0.3
 (Enter /opt/apps/apps/binapps/gaussian/g09d01_em64t/g09/l302.exe)
 NPDir=0 NMtPBC=     1 NCelOv=     1 NCel=       1 NClECP=     1 NCelD=      1
         NCelK=      1 NCelE2=     1 NClLst=     1 CellRange=     0.0.
 One-electron integrals computed using PRISM.
 NBasis=    92 RedAO= T EigKep=  4.51D-04  NBF=    92
 NBsUse=    92 1.00D-06 EigRej= -1.00D+00 NBFU=    92
 Precomputing XC quadrature grid using
 IXCGrd= 4 IRadAn=           0 IRanWt=          -1 IRanGd=           0 AccXCQ= 0.00D+00.
 Generated NRdTot=       0 NPtTot=           0 NUsed=           0 NTot=          32
 NSgBfM=   105   105   105   105   105 MxSgAt=     3 MxSgA2=     3.
 Leave Link  302 at Wed Dec 15 20:44:16 2021, MaxMem=   134217728 cpu:         0.3
 (Enter /opt/apps/apps/binapps/gaussian/g09d01_em64t/g09/l303.exe)
 DipDrv:  MaxL=1.
 Leave Link  303 at Wed Dec 15 20:44:16 2021, MaxMem=   134217728 cpu:         0.0
 (Enter /opt/apps/apps/binapps/gaussian/g09d01_em64t/g09/l401.exe)
 ExpMin= 2.53D-02 ExpMax= 1.53D+04 ExpMxC= 5.22D+02 IAcc=3 IRadAn=         5 AccDes= 0.00D+00
 Harris functional with IExCor=  402 and IRadAn=       5 diagonalized for initial guess.
 HarFok:  IExCor=  402 AccDes= 0.00D+00 IRadAn=         5 IDoV= 1 UseB2=F ITyADJ=14
 ICtDFT=  3500011 ScaDFX=  1.000000  1.000000  1.000000  1.000000
 FoFCou: FMM=F IPFlag=           0 FMFlag=      100000 FMFlg1=           0
         NFxFlg=           0 DoJE=T BraDBF=F KetDBF=T FulRan=T
         wScrn=  0.000000 ICntrl=     500 IOpCl=  0 I1Cent=   200000004 NGrid=           0
         NMat0=    1 NMatS0=      1 NMatT0=    0 NMatD0=    1 NMtDS0=    0 NMtDT0=    0
 Symmetry not used in FoFCou.
 Harris En= -76.4809441255845
 JPrj=0 DoOrth=F DoCkMO=F.
 Leave Link  401 at Wed Dec 15 20:44:16 2021, MaxMem=   134217728 cpu:         0.8
 (Enter /opt/apps/apps/binapps/gaussian/g09d01_em64t/g09/l502.exe)
 Closed shell SCF:
 Using DIIS extrapolation, IDIIS=  1040.
 Two-electron integral symmetry not used.
 Keep R1 ints in memory in canonical form, NReq=13369902.
 IVT=       52891 IEndB=       52891 NGot=   134217728 MDV=   125012057
 LenX=   125012057 LenY=   125000591
 Requested convergence on RMS density matrix=1.00D-08 within 128 cycles.
 Requested convergence on MAX density matrix=1.00D-06.
 Requested convergence on             energy=1.00D-06.
 No special actions if energy rises.
 FoFCou: FMM=F IPFlag=           0 FMFlag=           0 FMFlg1=           0
         NFxFlg=           0 DoJE=F BraDBF=F KetDBF=F FulRan=T
         wScrn=  0.000000 ICntrl=     600 IOpCl=  0 I1Cent=           0 NGrid=           0
         NMat0=    1 NMatS0=   4278 NMatT0=    0 NMatD0=    1 NMtDS0=    0 NMtDT0=    0
 Symmetry not used in FoFCou.

 Cycle   1  Pass 1  IDiag  1:
 Inv3:  Mode=1 IEnd=      465708.
 Iteration    1 A*A^-1 deviation from unit magnitude is 2.44D-15 for    391.
 Iteration    1 A*A^-1 deviation from orthogonality  is 2.67D-15 for    366     66.
 Iteration    1 A^-1*A deviation from unit magnitude is 2.66D-15 for    391.
 Iteration    1 A^-1*A deviation from orthogonality  is 2.78D-15 for    346    296.
 E= -76.3908364262061
 DIIS: error= 4.87D-02 at cycle   1 NSaved=   1.
 NSaved= 1 IEnMin= 1 EnMin= -76.3908364262061     IErMin= 1 ErrMin= 4.87D-02
 ErrMax= 4.87D-02  0.00D+00 EMaxC= 1.00D-01 BMatC= 1.03D-01 BMatP= 1.03D-01
 IDIUse=3 WtCom= 5.13D-01 WtEn= 4.87D-01
 Coeff-Com:  0.100D+01
 Coeff-En:   0.100D+01
 Coeff:      0.100D+01
 Gap=     0.156 Goal=   None    Shift=    0.000
 GapD=    0.156 DampG=1.000 DampE=0.500 DampFc=0.5000 IDamp=-1.
 Damping current iteration by 5.00D-01
 RMSDP=3.87D-03 MaxDP=6.53D-02              OVMax= 2.29D-01

 Cycle   2  Pass 1  IDiag  1:
 E= -76.3959188007117     Delta-E=       -0.005082374506 Rises=F Damp=T
 DIIS: error= 2.12D-02 at cycle   2 NSaved=   2.
 NSaved= 2 IEnMin= 2 EnMin= -76.3959188007117     IErMin= 2 ErrMin= 2.12D-02
 ErrMax= 2.12D-02  0.00D+00 EMaxC= 1.00D-01 BMatC= 1.89D-02 BMatP= 1.03D-01
 IDIUse=3 WtCom= 7.88D-01 WtEn= 2.12D-01
 Coeff-Com:  0.292D+00 0.708D+00
 Coeff-En:   0.472D+00 0.528D+00
 Coeff:      0.330D+00 0.670D+00
 Gap=     0.286 Goal=   None    Shift=    0.000
 RMSDP=7.08D-04 MaxDP=1.21D-02 DE=-5.08D-03 OVMax= 1.54D-01

 Cycle   3  Pass 1  IDiag  1:
 E= -76.4603775016859     Delta-E=       -0.064458700974 Rises=F Damp=F
 DIIS: error= 2.57D-03 at cycle   3 NSaved=   3.
 NSaved= 3 IEnMin= 3 EnMin= -76.4603775016859     IErMin= 3 ErrMin= 2.57D-03
 ErrMax= 2.57D-03  0.00D+00 EMaxC= 1.00D-01 BMatC= 2.92D-04 BMatP= 1.89D-02
 IDIUse=3 WtCom= 9.74D-01 WtEn= 2.57D-02
 Coeff-Com:  0.428D-01-0.159D-01 0.973D+00
 Coeff-En:   0.000D+00 0.000D+00 0.100D+01
 Coeff:      0.417D-01-0.155D-01 0.974D+00
 Gap=     0.298 Goal=   None    Shift=    0.000
 RMSDP=8.29D-05 MaxDP=3.09D-03 DE=-6.45D-02 OVMax= 2.95D-03

 Cycle   4  Pass 1  IDiag  1:
 E= -76.4605332847044     Delta-E=       -0.000155783018 Rises=F Damp=F
 DIIS: error= 5.19D-04 at cycle   4 NSaved=   4.
 NSaved= 4 IEnMin= 4 EnMin= -76.4605332847044     IErMin= 4 ErrMin= 5.19D-04
 ErrMax= 5.19D-04  0.00D+00 EMaxC= 1.00D-01 BMatC= 1.07D-05 BMatP= 2.92D-04
 IDIUse=3 WtCom= 9.95D-01 WtEn= 5.19D-03
 Coeff-Com:  0.100D-01-0.187D-01 0.219D+00 0.790D+00
 Coeff-En:   0.000D+00 0.000D+00 0.000D+00 0.100D+01
 Coeff:      0.995D-02-0.186D-01 0.217D+00 0.791D+00
 Gap=     0.298 Goal=   None    Shift=    0.000
 RMSDP=1.32D-05 MaxDP=2.52D-04 DE=-1.56D-04 OVMax= 7.58D-04

 Cycle   5  Pass 1  IDiag  1:
 E= -76.4605402546247     Delta-E=       -0.000006969920 Rises=F Damp=F
 DIIS: error= 1.31D-04 at cycle   5 NSaved=   5.
 NSaved= 5 IEnMin= 5 EnMin= -76.4605402546247     IErMin= 5 ErrMin= 1.31D-04
 ErrMax= 1.31D-04  0.00D+00 EMaxC= 1.00D-01 BMatC= 7.40D-07 BMatP= 1.07D-05
 IDIUse=3 WtCom= 9.99D-01 WtEn= 1.31D-03
 Coeff-Com:  0.276D-02-0.414D-02 0.245D-01 0.112D+00 0.865D+00
 Coeff-En:   0.000D+00 0.000D+00 0.000D+00 0.000D+00 0.100D+01
 Coeff:      0.276D-02-0.413D-02 0.244D-01 0.112D+00 0.865D+00
 Gap=     0.299 Goal=   None    Shift=    0.000
 RMSDP=4.11D-06 MaxDP=7.84D-05 DE=-6.97D-06 OVMax= 2.25D-04

 Cycle   6  Pass 1  IDiag  1:
 E= -76.4605408159392     Delta-E=       -0.000000561314 Rises=F Damp=F
 DIIS: error= 1.02D-05 at cycle   6 NSaved=   6.
 NSaved= 6 IEnMin= 6 EnMin= -76.4605408159392     IErMin= 6 ErrMin= 1.02D-05
 ErrMax= 1.02D-05  0.00D+00 EMaxC= 1.00D-01 BMatC= 3.51D-09 BMatP= 7.40D-07
 IDIUse=1 WtCom= 1.00D+00 WtEn= 0.00D+00
 Coeff-Com:  0.483D-04-0.172D-03 0.106D-02-0.663D-02-0.216D-01 0.103D+01
 Coeff:      0.483D-04-0.172D-03 0.106D-02-0.663D-02-0.216D-01 0.103D+01
 Gap=     0.299 Goal=   None    Shift=    0.000
 RMSDP=3.56D-07 MaxDP=6.57D-06 DE=-5.61D-07 OVMax= 2.05D-05

 Cycle   7  Pass 1  IDiag  1:
 E= -76.4605408187095     Delta-E=       -0.000000002770 Rises=F Damp=F
 DIIS: error= 6.17D-07 at cycle   7 NSaved=   7.
 NSaved= 7 IEnMin= 7 EnMin= -76.4605408187095     IErMin= 7 ErrMin= 6.17D-07
 ErrMax= 6.17D-07  0.00D+00 EMaxC= 1.00D-01 BMatC= 3.35D-11 BMatP= 3.51D-09
 IDIUse=1 WtCom= 1.00D+00 WtEn= 0.00D+00
 Coeff-Com: -0.214D-04-0.227D-05 0.433D-04-0.329D-02-0.193D-01 0.287D+00
 Coeff-Com:  0.735D+00
 Coeff:     -0.214D-04-0.227D-05 0.433D-04-0.329D-02-0.193D-01 0.287D+00
 Coeff:      0.735D+00
 Gap=     0.299 Goal=   None    Shift=    0.000
 RMSDP=3.67D-08 MaxDP=7.66D-07 DE=-2.77D-09 OVMax= 1.61D-06

 Cycle   8  Pass 1  IDiag  1:
 E= -76.4605408187342     Delta-E=       -0.000000000025 Rises=F Damp=F
 DIIS: error= 5.80D-08 at cycle   8 NSaved=   8.
 NSaved= 8 IEnMin= 8 EnMin= -76.4605408187342     IErMin= 8 ErrMin= 5.80D-08
 ErrMax= 5.80D-08  0.00D+00 EMaxC= 1.00D-01 BMatC= 1.20D-13 BMatP= 3.35D-11
 IDIUse=1 WtCom= 1.00D+00 WtEn= 0.00D+00
 Coeff-Com: -0.247D-05 0.527D-05-0.350D-04 0.123D-03-0.881D-04-0.239D-01
 Coeff-Com: -0.120D-01 0.104D+01
 Coeff:     -0.247D-05 0.527D-05-0.350D-04 0.123D-03-0.881D-04-0.239D-01
 Coeff:     -0.120D-01 0.104D+01
 Gap=     0.299 Goal=   None    Shift=    0.000
 RMSDP=5.89D-09 MaxDP=2.07D-07 DE=-2.47D-11 OVMax= 2.63D-07

 Error on total polarization charges =  0.00769
 SCF Done:  E(RB3LYP) =  -76.4605408187     A.U. after    8 cycles
            NFock=  8  Conv=0.59D-08     -V/T= 2.0090
 KE= 7.577652296053D+01 PE=-1.975852224918D+02 EE= 3.685347774982D+01
 Leave Link  502 at Wed Dec 15 20:44:19 2021, MaxMem=   134217728 cpu:         4.5
 (Enter /opt/apps/apps/binapps/gaussian/g09d01_em64t/g09/l601.exe)
 Copying SCF densities to generalized density rwf, IOpCl= 0 IROHF=0.

 **********************************************************************

            Population analysis using the SCF density.

 **********************************************************************

 Alpha  occ. eigenvalues --  -19.15418  -0.99698  -0.49431  -0.41321  -0.32390
 Alpha virt. eigenvalues --   -0.02522   0.02459   0.06991   0.08751   0.09284
 Alpha virt. eigenvalues --    0.11260   0.13726   0.17731   0.19974   0.20970
 Alpha virt. eigenvalues --    0.21253   0.31014   0.31894   0.34021   0.46969
 Alpha virt. eigenvalues --    0.53273   0.55361   0.58679   0.59724   0.66191
 Alpha virt. eigenvalues --    0.71883   0.73111   0.73735   0.75035   0.78753
 Alpha virt. eigenvalues --    0.79553   0.81696   0.87241   0.88983   0.89990
 Alpha virt. eigenvalues --    0.97670   1.04367   1.04511   1.13342   1.29100
 Alpha virt. eigenvalues --    1.29529   1.34127   1.59720   1.61256   1.65908
 Alpha virt. eigenvalues --    1.82061   1.98016   2.02209   2.04572   2.12116
 Alpha virt. eigenvalues --    2.14019   2.15750   2.26601   2.42574   2.43400
 Alpha virt. eigenvalues --    2.46532   2.53134   2.56859   3.14701   3.27858
 Alpha virt. eigenvalues --    3.57062   3.71791   3.73298   3.85382   3.88314
 Alpha virt. eigenvalues --    4.02677   4.02801   4.03408   4.05392   4.20588
 Alpha virt. eigenvalues --    4.33386   4.56269   4.66435   4.68499   4.89659
 Alpha virt. eigenvalues --    4.95022   5.07626   5.74569   6.01656   6.21607
 Alpha virt. eigenvalues --    6.37842   6.49511   6.55659   6.70287   6.72400
 Alpha virt. eigenvalues --    6.79823   6.82449   6.87815   7.20202   7.32771
 Alpha virt. eigenvalues --    7.88587  13.01342
          Condensed to atoms (all electrons):
               1          2          3
     1  O    8.072532   0.234808   0.229275
     2  H    0.234808   0.500392   0.022887
     3  H    0.229275   0.022887   0.453138
 Mulliken charges:
               1
     1  O   -0.536614
     2  H    0.241913
     3  H    0.294701
 Sum of Mulliken charges =   0.00000
 Mulliken charges with hydrogens summed into heavy atoms:
               1
     1  O    0.000000
 Electronic spatial extent (au):  <R**2>=             26.0584
 Charge=              0.0000 electrons
 Dipole moment (field-independent basis, Debye):
    X=              0.1426    Y=              2.3942    Z=              0.0535  Tot=              2.3991
 Quadrupole moment (field-independent basis, Debye-Ang):
   XX=             -6.4806   YY=             -7.7366   ZZ=             -6.2040
   XY=              0.0721   XZ=             -1.6772   YZ=             -0.0534
 Traceless Quadrupole moment (field-independent basis, Debye-Ang):
   XX=              0.3265   YY=             -0.9296   ZZ=              0.6031
   XY=              0.0721   XZ=             -1.6772   YZ=             -0.0534
 Octapole moment (field-independent basis, Debye-Ang**2):
  XXX=              0.5715  YYY=              8.4307  ZZZ=              0.1809  XYY=              0.1988
  XXY=              3.0691  XXZ=              0.0434  XZZ=              0.1882  YZZ=              3.0845
  YYZ=              0.0037  XYZ=             -0.1253
 Hexadecapole moment (field-independent basis, Debye-Ang**3):
 XXXX=             -8.4442 YYYY=            -15.1828 ZZZZ=             -8.3154 XXXY=             -0.2840
 XXXZ=             -0.1887 YYYX=             -0.2953 YYYZ=              0.0517 ZZZX=             -0.2640
 ZZZY=              0.0379 XXYY=             -3.8874 XXZZ=             -2.4725 YYZZ=             -3.8541
 XXYZ=             -0.0366 YYXZ=             -0.1597 ZZXY=             -0.0788
 N-N= 8.494680962678D+00 E-N=-1.975852242957D+02  KE= 7.577652296053D+01
 No NMR shielding tensors so no spin-rotation constants.
 Leave Link  601 at Wed Dec 15 20:44:19 2021, MaxMem=   134217728 cpu:         0.3
 (Enter /opt/apps/apps/binapps/gaussian/g09d01_em64t/g09/l9999.exe)
 1\1\GINC-NODE655\SP\RB3LYP\Aug-CC-pVTZ\H2O1\MBDXWYM4\15-Dec-2021\0\\#p
  B3LYP/AUG-cc-pVTZ SCRF=(Solvent=Water) nosymm output=wfn\\WATER_MONOM
 ER0001\\0,1\O,0,-0.03348733,-0.46689766,-0.00424905\H,0,-0.50428226,0.
 20263196,0.56694849\H,0,0.53776959,0.2642657,-0.56269944\\Version=ES64
 L-G09RevD.01\HF=-76.4605408\RMSD=5.890e-09\Dipole=0.056092,0.9419647,0
 .021044\Quadrupole=0.2427238,-0.6910979,0.4483741,0.0536201,-1.2469726
 ,-0.0396799\PG=CS [SG(H2O1)]\\@

 Writing a WFN file to "TRAINING_SET/WATER_MONOMER0001/WATER_MONOMER0001.wfn"


 THE PROBLEM WITH THE LADDER OF SUCCESS IS YOU CAN'T
 CLIMB IT WHILE YOU'RE TWIDDLING YOUR THUMBS.
 Job cpu time:       0 days  0 hours  0 minutes  9.9 seconds.
 File lengths (MBytes):  RWF=      9 Int=      0 D2E=      0 Chk=      1 Scr=      1
 Normal termination of Gaussian 09 at Wed Dec 15 20:44:19 2021.
