 Entering Gaussian System, Link 0=/opt/apps/apps/binapps/gaussian/g09d01_em64t/g09/g09
 Input=/net/scratch2/mbdxwym4/water_monomer_forces/GAUSSIAN_ONLY/WATER_MONOMER0/WATER_MONOMER0.gjf
 Output=/net/scratch2/mbdxwym4/water_monomer_forces/GAUSSIAN_ONLY/WATER_MONOMER0/WATER_MONOMER0.gau
 Initial command:
 /opt/apps/apps/binapps/gaussian/g09d01_em64t/g09/l1.exe "/net/scratch2/mbdxwym4/water_monomer_forces/GAUSSIAN_ONLY/WATER_MONOMER0/Gau-29086.inp" -scrdir="/net/scratch2/mbdxwym4/water_monomer_forces/GAUSSIAN_ONLY/WATER_MONOMER0/"
 Entering Link 1 = /opt/apps/apps/binapps/gaussian/g09d01_em64t/g09/l1.exe PID=     29087.

 Copyright (c) 1988,1990,1992,1993,1995,1998,2003,2009,2013,
            Gaussian, Inc.  All Rights Reserved.

 This is part of the Gaussian(R) 09 program.  It is based on
 the Gaussian(R) 03 system (copyright 2003, Gaussian, Inc.),
 the Gaussian(R) 98 system (copyright 1998, Gaussian, Inc.),
 the Gaussian(R) 94 system (copyright 1995, Gaussian, Inc.),
 the Gaussian 92(TM) system (copyright 1992, Gaussian, Inc.),
 the Gaussian 90(TM) system (copyright 1990, Gaussian, Inc.),
 the Gaussian 88(TM) system (copyright 1988, Gaussian, Inc.),
 the Gaussian 86(TM) system (copyright 1986, Carnegie Mellon
 University), and the Gaussian 82(TM) system (copyright 1983,
 Carnegie Mellon University). Gaussian is a federally registered
 trademark of Gaussian, Inc.

 This software contains proprietary and confidential information,
 including trade secrets, belonging to Gaussian, Inc.

 This software is provided under written license and may be
 used, copied, transmitted, or stored only in accord with that
 written license.

 The following legend is applicable only to US Government
 contracts under FAR:

                    RESTRICTED RIGHTS LEGEND

 Use, reproduction and disclosure by the US Government is
 subject to restrictions as set forth in subparagraphs (a)
 and (c) of the Commercial Computer Software - Restricted
 Rights clause in FAR 52.227-19.

 Gaussian, Inc.
 340 Quinnipiac St., Bldg. 40, Wallingford CT 06492


 ---------------------------------------------------------------
 Warning -- This program may not be used in any manner that
 competes with the business of Gaussian, Inc. or will provide
 assistance to any competitor of Gaussian, Inc.  The licensee
 of this program is prohibited from giving any competitor of
 Gaussian, Inc. access to this program.  By using this program,
 the user acknowledges that Gaussian, Inc. is engaged in the
 business of creating and licensing software in the field of
 computational chemistry and represents and warrants to the
 licensee that it is not a competitor of Gaussian, Inc. and that
 it will not use this program in any manner prohibited above.
 ---------------------------------------------------------------


 Cite this work as:
 Gaussian 09, Revision D.01,
 M. J. Frisch, G. W. Trucks, H. B. Schlegel, G. E. Scuseria,
 M. A. Robb, J. R. Cheeseman, G. Scalmani, V. Barone, B. Mennucci,
 G. A. Petersson, H. Nakatsuji, M. Caricato, X. Li, H. P. Hratchian,
 A. F. Izmaylov, J. Bloino, G. Zheng, J. L. Sonnenberg, M. Hada,
 M. Ehara, K. Toyota, R. Fukuda, J. Hasegawa, M. Ishida, T. Nakajima,
 Y. Honda, O. Kitao, H. Nakai, T. Vreven, J. A. Montgomery, Jr.,
 J. E. Peralta, F. Ogliaro, M. Bearpark, J. J. Heyd, E. Brothers,
 K. N. Kudin, V. N. Staroverov, T. Keith, R. Kobayashi, J. Normand,
 K. Raghavachari, A. Rendell, J. C. Burant, S. S. Iyengar, J. Tomasi,
 M. Cossi, N. Rega, J. M. Millam, M. Klene, J. E. Knox, J. B. Cross,
 V. Bakken, C. Adamo, J. Jaramillo, R. Gomperts, R. E. Stratmann,
 O. Yazyev, A. J. Austin, R. Cammi, C. Pomelli, J. W. Ochterski,
 R. L. Martin, K. Morokuma, V. G. Zakrzewski, G. A. Voth,
 P. Salvador, J. J. Dannenberg, S. Dapprich, A. D. Daniels,
 O. Farkas, J. B. Foresman, J. V. Ortiz, J. Cioslowski,
 and D. J. Fox, Gaussian, Inc., Wallingford CT, 2013.

 ******************************************
 Gaussian 09:  ES64L-G09RevD.01 24-Apr-2013
                 8-Jul-2022
 ******************************************
 --------------------------------------------
 #p B3LYP/AUG-cc-pVTZ nosymm output=wfn force
 --------------------------------------------
 1/10=7,30=1,38=1/1,3;
 2/12=2,15=1,17=6,18=5,40=1/2;
 3/5=16,6=1,7=10,11=2,16=1,25=1,30=1,71=1,74=-5/1,2,3;
 4//1;
 5/5=2,38=5/2;
 6/7=2,8=2,9=2,10=2,28=1/1;
 7/29=1,30=1/1,2,3,16;
 1/10=7,30=1/3;
 99/6=100/99;
 Leave Link    1 at Fri Jul  8 18:11:55 2022, MaxMem=           0 cpu:         0.0
 (Enter /opt/apps/apps/binapps/gaussian/g09d01_em64t/g09/l101.exe)
 --------------
 WATER_MONOMER0
 --------------
 Symbolic Z-matrix:
 Charge =  0 Multiplicity = 1
 O                     0.        0.        0.
 H                     0.99809   0.        0.
 H                    -0.09858   1.07846   0.

 NAtoms=      3 NQM=        3 NQMF=       0 NMMI=      0 NMMIF=      0
                NMic=       0 NMicF=      0.
                    Isotopes and Nuclear Properties:
 (Nuclear quadrupole moments (NQMom) in fm**2, nuclear magnetic moments (NMagM)
  in nuclear magnetons)

  Atom         1           2           3
 IAtWgt=          16           1           1
 AtmWgt=  15.9949146   1.0078250   1.0078250
 NucSpn=           0           1           1
 AtZEff=   0.0000000   0.0000000   0.0000000
 NQMom=    0.0000000   0.0000000   0.0000000
 NMagM=    0.0000000   2.7928460   2.7928460
 AtZNuc=   8.0000000   1.0000000   1.0000000
 Leave Link  101 at Fri Jul  8 18:11:55 2022, MaxMem=    33554432 cpu:         0.1
 (Enter /opt/apps/apps/binapps/gaussian/g09d01_em64t/g09/l103.exe)

 GradGradGradGradGradGradGradGradGradGradGradGradGradGradGradGradGradGrad
 Berny optimization.
 Initialization pass.
 Trust Radius=3.00D-01 FncErr=1.00D-07 GrdErr=1.00D-07
 Number of steps in this run=      2 maximum allowed number of steps=      2.
 GradGradGradGradGradGradGradGradGradGradGradGradGradGradGradGradGradGrad

 Leave Link  103 at Fri Jul  8 18:11:55 2022, MaxMem=    33554432 cpu:         0.0
 (Enter /opt/apps/apps/binapps/gaussian/g09d01_em64t/g09/l202.exe)
                          Input orientation:
 ---------------------------------------------------------------------
 Center     Atomic      Atomic             Coordinates (Angstroms)
 Number     Number       Type             X           Y           Z
 ---------------------------------------------------------------------
      1          8           0        0.000000    0.000000    0.000000
      2          1           0        0.998090    0.000000    0.000000
      3          1           0       -0.098583    1.078463    0.000000
 ---------------------------------------------------------------------
                    Distance matrix (angstroms):
                    1          2          3
     1  O    0.000000
     2  H    0.998090   0.000000
     3  H    1.082959   1.538108   0.000000
 Symmetry turned off by external request.
 Stoichiometry    H2O
 Framework group  CS[SG(H2O)]
 Deg. of freedom     3
 Full point group                 CS      NOp   2
 Rotational constants (GHZ):    586.7441192    416.4956554    243.5872088
 Leave Link  202 at Fri Jul  8 18:11:55 2022, MaxMem=    33554432 cpu:         0.0
 (Enter /opt/apps/apps/binapps/gaussian/g09d01_em64t/g09/l301.exe)
 Standard basis: Aug-CC-pVTZ (5D, 7F)
 Ernie: Thresh=  0.10000D-02 Tol=  0.10000D-05 Strict=F.
 Ernie:  3 primitive shells out of 52 were deleted.
    92 basis functions,   126 primitive gaussians,   105 cartesian basis functions
     5 alpha electrons        5 beta electrons
       nuclear repulsion energy         8.4946809072 Hartrees.
 IExCor=  402 DFT=T Ex+Corr=B3LYP ExCW=0 ScaHFX=  0.200000
 ScaDFX=  0.800000  0.720000  1.000000  0.810000 ScalE2=  1.000000  1.000000
 IRadAn=      0 IRanWt=     -1 IRanGd=            0 ICorTp=0 IEmpDi=  4
 NAtoms=    3 NActive=    3 NUniq=    3 SFac= 1.00D+00 NAtFMM=   60 NAOKFM=F Big=F
 Integral buffers will be    131072 words long.
 Raffenetti 2 integral format.
 Two-electron integral symmetry is turned off.
 Leave Link  301 at Fri Jul  8 18:11:55 2022, MaxMem=    33554432 cpu:         0.0
 (Enter /opt/apps/apps/binapps/gaussian/g09d01_em64t/g09/l302.exe)
 NPDir=0 NMtPBC=     1 NCelOv=     1 NCel=       1 NClECP=     1 NCelD=      1
         NCelK=      1 NCelE2=     1 NClLst=     1 CellRange=     0.0.
 One-electron integrals computed using PRISM.
 NBasis=    92 RedAO= T EigKep=  4.51D-04  NBF=    92
 NBsUse=    92 1.00D-06 EigRej= -1.00D+00 NBFU=    92
 Precomputing XC quadrature grid using
 IXCGrd= 4 IRadAn=           0 IRanWt=          -1 IRanGd=           0 AccXCQ= 0.00D+00.
 Generated NRdTot=       0 NPtTot=           0 NUsed=           0 NTot=          32
 NSgBfM=   105   105   105   105   105 MxSgAt=     3 MxSgA2=     3.
 Leave Link  302 at Fri Jul  8 18:11:56 2022, MaxMem=    33554432 cpu:         0.2
 (Enter /opt/apps/apps/binapps/gaussian/g09d01_em64t/g09/l303.exe)
 DipDrv:  MaxL=1.
 Leave Link  303 at Fri Jul  8 18:11:56 2022, MaxMem=    33554432 cpu:         0.0
 (Enter /opt/apps/apps/binapps/gaussian/g09d01_em64t/g09/l401.exe)
 ExpMin= 2.53D-02 ExpMax= 1.53D+04 ExpMxC= 5.22D+02 IAcc=3 IRadAn=         5 AccDes= 0.00D+00
 Harris functional with IExCor=  402 and IRadAn=       5 diagonalized for initial guess.
 HarFok:  IExCor=  402 AccDes= 0.00D+00 IRadAn=         5 IDoV= 1 UseB2=F ITyADJ=14
 ICtDFT=  3500011 ScaDFX=  1.000000  1.000000  1.000000  1.000000
 FoFCou: FMM=F IPFlag=           0 FMFlag=      100000 FMFlg1=           0
         NFxFlg=           0 DoJE=T BraDBF=F KetDBF=T FulRan=T
         wScrn=  0.000000 ICntrl=     500 IOpCl=  0 I1Cent=   200000004 NGrid=           0
         NMat0=    1 NMatS0=      1 NMatT0=    0 NMatD0=    1 NMtDS0=    0 NMtDT0=    0
 Symmetry not used in FoFCou.
 Harris En= -76.4809441124788
 JPrj=0 DoOrth=F DoCkMO=F.
 Leave Link  401 at Fri Jul  8 18:11:56 2022, MaxMem=    33554432 cpu:         0.8
 (Enter /opt/apps/apps/binapps/gaussian/g09d01_em64t/g09/l502.exe)
 Closed shell SCF:
 Using DIIS extrapolation, IDIIS=  1040.
 Two-electron integral symmetry not used.
 Keep R1 ints in memory in canonical form, NReq=11176580.
 IVT=       52891 IEndB=       52891 NGot=    33554432 MDV=    24348761
 LenX=    24348761 LenY=    24337295
 Requested convergence on RMS density matrix=1.00D-08 within 128 cycles.
 Requested convergence on MAX density matrix=1.00D-06.
 Requested convergence on             energy=1.00D-06.
 No special actions if energy rises.
 FoFCou: FMM=F IPFlag=           0 FMFlag=           0 FMFlg1=           0
         NFxFlg=           0 DoJE=F BraDBF=F KetDBF=F FulRan=T
         wScrn=  0.000000 ICntrl=     600 IOpCl=  0 I1Cent=           0 NGrid=           0
         NMat0=    1 NMatS0=   4278 NMatT0=    0 NMatD0=    1 NMtDS0=    0 NMtDT0=    0
 Symmetry not used in FoFCou.

 Cycle   1  Pass 1  IDiag  1:
 E= -76.3765358770054
 DIIS: error= 4.87D-02 at cycle   1 NSaved=   1.
 NSaved= 1 IEnMin= 1 EnMin= -76.3765358770054     IErMin= 1 ErrMin= 4.87D-02
 ErrMax= 4.87D-02  0.00D+00 EMaxC= 1.00D-01 BMatC= 1.09D-01 BMatP= 1.09D-01
 IDIUse=3 WtCom= 5.13D-01 WtEn= 4.87D-01
 Coeff-Com:  0.100D+01
 Coeff-En:   0.100D+01
 Coeff:      0.100D+01
 Gap=     0.127 Goal=   None    Shift=    0.000
 GapD=    0.127 DampG=1.000 DampE=0.500 DampFc=0.5000 IDamp=-1.
 Damping current iteration by 5.00D-01
 RMSDP=4.00D-03 MaxDP=7.19D-02              OVMax= 2.46D-01

 Cycle   2  Pass 1  IDiag  1:
 E= -76.3761637698009     Delta-E=        0.000372107205 Rises=F Damp=T
 DIIS: error= 2.45D-02 at cycle   2 NSaved=   2.
 NSaved= 2 IEnMin= 1 EnMin= -76.3765358770054     IErMin= 2 ErrMin= 2.45D-02
 ErrMax= 2.45D-02  0.00D+00 EMaxC= 1.00D-01 BMatC= 2.49D-02 BMatP= 1.09D-01
 IDIUse=3 WtCom= 7.55D-01 WtEn= 2.45D-01
 Coeff-Com:  0.316D+00 0.684D+00
 Coeff-En:   0.502D+00 0.498D+00
 Coeff:      0.362D+00 0.638D+00
 Gap=     0.269 Goal=   None    Shift=    0.000
 RMSDP=7.35D-04 MaxDP=1.29D-02 DE= 3.72D-04 OVMax= 1.64D-01

 Cycle   3  Pass 1  IDiag  1:
 E= -76.4531810723114     Delta-E=       -0.077017302510 Rises=F Damp=F
 DIIS: error= 3.79D-03 at cycle   3 NSaved=   3.
 NSaved= 3 IEnMin= 3 EnMin= -76.4531810723114     IErMin= 3 ErrMin= 3.79D-03
 ErrMax= 3.79D-03  0.00D+00 EMaxC= 1.00D-01 BMatC= 5.86D-04 BMatP= 2.49D-02
 IDIUse=3 WtCom= 9.62D-01 WtEn= 3.79D-02
 Coeff-Com:  0.533D-01-0.370D-01 0.984D+00
 Coeff-En:   0.000D+00 0.000D+00 0.100D+01
 Coeff:      0.513D-01-0.356D-01 0.984D+00
 Gap=     0.285 Goal=   None    Shift=    0.000
 RMSDP=9.96D-05 MaxDP=3.39D-03 DE=-7.70D-02 OVMax= 4.51D-03

 Cycle   4  Pass 1  IDiag  1:
 E= -76.4535162714014     Delta-E=       -0.000335199090 Rises=F Damp=F
 DIIS: error= 6.23D-04 at cycle   4 NSaved=   4.
 NSaved= 4 IEnMin= 4 EnMin= -76.4535162714014     IErMin= 4 ErrMin= 6.23D-04
 ErrMax= 6.23D-04  0.00D+00 EMaxC= 1.00D-01 BMatC= 1.47D-05 BMatP= 5.86D-04
 IDIUse=3 WtCom= 9.94D-01 WtEn= 6.23D-03
 Coeff-Com:  0.121D-01-0.234D-01 0.209D+00 0.802D+00
 Coeff-En:   0.000D+00 0.000D+00 0.000D+00 0.100D+01
 Coeff:      0.120D-01-0.232D-01 0.208D+00 0.803D+00
 Gap=     0.286 Goal=   None    Shift=    0.000
 RMSDP=1.64D-05 MaxDP=3.14D-04 DE=-3.35D-04 OVMax= 9.18D-04

 Cycle   5  Pass 1  IDiag  1:
 E= -76.4535261193238     Delta-E=       -0.000009847922 Rises=F Damp=F
 DIIS: error= 1.57D-04 at cycle   5 NSaved=   5.
 NSaved= 5 IEnMin= 5 EnMin= -76.4535261193238     IErMin= 5 ErrMin= 1.57D-04
 ErrMax= 1.57D-04  0.00D+00 EMaxC= 1.00D-01 BMatC= 1.22D-06 BMatP= 1.47D-05
 IDIUse=3 WtCom= 9.98D-01 WtEn= 1.57D-03
 Coeff-Com:  0.367D-02-0.577D-02 0.306D-01 0.149D+00 0.823D+00
 Coeff-En:   0.000D+00 0.000D+00 0.000D+00 0.000D+00 0.100D+01
 Coeff:      0.366D-02-0.576D-02 0.306D-01 0.148D+00 0.823D+00
 Gap=     0.286 Goal=   None    Shift=    0.000
 RMSDP=5.37D-06 MaxDP=1.01D-04 DE=-9.85D-06 OVMax= 2.96D-04

 Cycle   6  Pass 1  IDiag  1:
 E= -76.4535270983158     Delta-E=       -0.000000978992 Rises=F Damp=F
 DIIS: error= 1.70D-05 at cycle   6 NSaved=   6.
 NSaved= 6 IEnMin= 6 EnMin= -76.4535270983158     IErMin= 6 ErrMin= 1.70D-05
 ErrMax= 1.70D-05  0.00D+00 EMaxC= 1.00D-01 BMatC= 1.03D-08 BMatP= 1.22D-06
 IDIUse=1 WtCom= 1.00D+00 WtEn= 0.00D+00
 Coeff-Com:  0.106D-03-0.317D-03 0.174D-02-0.119D-01-0.162D-01 0.103D+01
 Coeff:      0.106D-03-0.317D-03 0.174D-02-0.119D-01-0.162D-01 0.103D+01
 Gap=     0.286 Goal=   None    Shift=    0.000
 RMSDP=6.18D-07 MaxDP=1.31D-05 DE=-9.79D-07 OVMax= 3.29D-05

 Cycle   7  Pass 1  IDiag  1:
 E= -76.4535271065896     Delta-E=       -0.000000008274 Rises=F Damp=F
 DIIS: error= 1.37D-06 at cycle   7 NSaved=   7.
 NSaved= 7 IEnMin= 7 EnMin= -76.4535271065896     IErMin= 7 ErrMin= 1.37D-06
 ErrMax= 1.37D-06  0.00D+00 EMaxC= 1.00D-01 BMatC= 9.74D-11 BMatP= 1.03D-08
 IDIUse=1 WtCom= 1.00D+00 WtEn= 0.00D+00
 Coeff-Com:  0.780D-05-0.461D-04 0.275D-03-0.344D-02-0.127D-01 0.220D+00
 Coeff-Com:  0.796D+00
 Coeff:      0.780D-05-0.461D-04 0.275D-03-0.344D-02-0.127D-01 0.220D+00
 Coeff:      0.796D+00
 Gap=     0.286 Goal=   None    Shift=    0.000
 RMSDP=5.70D-08 MaxDP=9.98D-07 DE=-8.27D-09 OVMax= 2.75D-06

 Cycle   8  Pass 1  IDiag  1:
 E= -76.4535271066720     Delta-E=       -0.000000000082 Rises=F Damp=F
 DIIS: error= 2.36D-07 at cycle   8 NSaved=   8.
 NSaved= 8 IEnMin= 8 EnMin= -76.4535271066720     IErMin= 8 ErrMin= 2.36D-07
 ErrMax= 2.36D-07  0.00D+00 EMaxC= 1.00D-01 BMatC= 3.03D-12 BMatP= 9.74D-11
 IDIUse=1 WtCom= 1.00D+00 WtEn= 0.00D+00
 Coeff-Com: -0.452D-05 0.853D-05-0.416D-04-0.507D-04-0.274D-02-0.148D-01
 Coeff-Com:  0.176D+00 0.842D+00
 Coeff:     -0.452D-05 0.853D-05-0.416D-04-0.507D-04-0.274D-02-0.148D-01
 Coeff:      0.176D+00 0.842D+00
 Gap=     0.286 Goal=   None    Shift=    0.000
 RMSDP=1.26D-08 MaxDP=2.13D-07 DE=-8.25D-11 OVMax= 6.29D-07

 Cycle   9  Pass 1  IDiag  1:
 E= -76.4535271066744     Delta-E=       -0.000000000002 Rises=F Damp=F
 DIIS: error= 2.92D-08 at cycle   9 NSaved=   9.
 NSaved= 9 IEnMin= 9 EnMin= -76.4535271066744     IErMin= 9 ErrMin= 2.92D-08
 ErrMax= 2.92D-08  0.00D+00 EMaxC= 1.00D-01 BMatC= 4.50D-14 BMatP= 3.03D-12
 IDIUse=1 WtCom= 1.00D+00 WtEn= 0.00D+00
 Coeff-Com: -0.350D-06 0.109D-05-0.594D-05 0.489D-04 0.137D-03-0.359D-02
 Coeff-Com:  0.241D-02 0.482D-01 0.953D+00
 Coeff:     -0.350D-06 0.109D-05-0.594D-05 0.489D-04 0.137D-03-0.359D-02
 Coeff:      0.241D-02 0.482D-01 0.953D+00
 Gap=     0.286 Goal=   None    Shift=    0.000
 RMSDP=1.12D-09 MaxDP=2.48D-08 DE=-2.42D-12 OVMax= 9.96D-08

 SCF Done:  E(RB3LYP) =  -76.4535271067     A.U. after    9 cycles
            NFock=  9  Conv=0.11D-08     -V/T= 2.0088
 KE= 7.578664443735D+01 PE=-1.975451074761D+02 EE= 3.681025502485D+01
 Leave Link  502 at Fri Jul  8 18:12:00 2022, MaxMem=    33554432 cpu:         3.4
 (Enter /opt/apps/apps/binapps/gaussian/g09d01_em64t/g09/l601.exe)
 Copying SCF densities to generalized density rwf, IOpCl= 0 IROHF=0.

 **********************************************************************

            Population analysis using the SCF density.

 **********************************************************************

 Alpha  occ. eigenvalues --  -19.15532  -0.99717  -0.49556  -0.41047  -0.32055
 Alpha virt. eigenvalues --   -0.03451   0.01596   0.06746   0.09549   0.09724
 Alpha virt. eigenvalues --    0.10512   0.14537   0.16801   0.19252   0.20684
 Alpha virt. eigenvalues --    0.21436   0.30031   0.30672   0.32878   0.47045
 Alpha virt. eigenvalues --    0.52703   0.55737   0.59470   0.59931   0.65963
 Alpha virt. eigenvalues --    0.71077   0.73957   0.74599   0.75235   0.78235
 Alpha virt. eigenvalues --    0.78798   0.80374   0.85648   0.87610   0.89149
 Alpha virt. eigenvalues --    0.96415   1.02847   1.03509   1.13483   1.28733
 Alpha virt. eigenvalues --    1.29169   1.33845   1.58469   1.61043   1.65096
 Alpha virt. eigenvalues --    1.81702   1.98499   2.02769   2.04901   2.12820
 Alpha virt. eigenvalues --    2.14627   2.16319   2.27216   2.42947   2.43761
 Alpha virt. eigenvalues --    2.46473   2.53202   2.57034   3.14394   3.27528
 Alpha virt. eigenvalues --    3.57024   3.71030   3.72688   3.84957   3.87702
 Alpha virt. eigenvalues --    4.02072   4.02118   4.02750   4.04812   4.20093
 Alpha virt. eigenvalues --    4.32908   4.55870   4.65836   4.68076   4.88935
 Alpha virt. eigenvalues --    4.94760   5.07260   5.74663   6.01783   6.21830
 Alpha virt. eigenvalues --    6.37981   6.49679   6.55689   6.70378   6.72573
 Alpha virt. eigenvalues --    6.80000   6.82645   6.87791   7.20232   7.32886
 Alpha virt. eigenvalues --    7.88392  13.01217
          Condensed to atoms (all electrons):
               1          2          3
     1  O    8.021890   0.222824   0.220766
     2  H    0.222824   0.537962   0.031754
     3  H    0.220766   0.031754   0.489461
 Mulliken charges:
               1
     1  O   -0.465480
     2  H    0.207460
     3  H    0.258019
 Sum of Mulliken charges =   0.00000
 Mulliken charges with hydrogens summed into heavy atoms:
               1
     1  O    0.000000
 Electronic spatial extent (au):  <R**2>=             21.4223
 Charge=              0.0000 electrons
 Dipole moment (field-independent basis, Debye):
    X=              1.3362    Y=              1.5253    Z=              0.0000  Tot=              2.0278
 Quadrupole moment (field-independent basis, Debye-Ang):
   XX=             -5.3112   YY=             -5.1244   ZZ=             -7.9601
   XY=             -0.4487   XZ=              0.0000   YZ=              0.0000
 Traceless Quadrupole moment (field-independent basis, Debye-Ang):
   XX=              0.8207   YY=              1.0075   ZZ=             -1.8282
   XY=             -0.4487   XZ=              0.0000   YZ=              0.0000
 Octapole moment (field-independent basis, Debye-Ang**2):
  XXX=              0.3222  YYY=              0.2308  ZZZ=              0.0000  XYY=             -0.8355
  XXY=             -0.7487  XXZ=              0.0000  XZZ=             -0.5908  YZZ=             -0.7743
  YYZ=              0.0000  XYZ=              0.0000
 Hexadecapole moment (field-independent basis, Debye-Ang**3):
 XXXX=             -6.9726 YYYY=             -7.2644 ZZZZ=             -8.0431 XXXY=             -0.1772
 XXXZ=              0.0000 YYYX=             -0.4713 YYYZ=              0.0000 ZZZX=              0.0000
 ZZZY=              0.0000 XXYY=             -3.2206 XXZZ=             -2.9078 YYZZ=             -3.0768
 XXYZ=              0.0000 YYXZ=              0.0000 ZZXY=             -0.0352
 N-N= 8.494680907181D+00 E-N=-1.975451062557D+02  KE= 7.578664443735D+01
 No NMR shielding tensors so no spin-rotation constants.
 Leave Link  601 at Fri Jul  8 18:12:00 2022, MaxMem=    33554432 cpu:         0.2
 (Enter /opt/apps/apps/binapps/gaussian/g09d01_em64t/g09/l701.exe)
 Compute integral first derivatives.
 ... and contract with generalized density number  0.
 Leave Link  701 at Fri Jul  8 18:12:00 2022, MaxMem=    33554432 cpu:         0.2
 (Enter /opt/apps/apps/binapps/gaussian/g09d01_em64t/g09/l702.exe)
 L702 exits ... SP integral derivatives will be done elsewhere.
 Leave Link  702 at Fri Jul  8 18:12:00 2022, MaxMem=    33554432 cpu:         0.0
 (Enter /opt/apps/apps/binapps/gaussian/g09d01_em64t/g09/l703.exe)
 Compute integral first derivatives, UseDBF=F ICtDFT=           0.
 Integral derivatives from FoFJK, PRISM(SPDF).
 Calling FoFJK, ICntrl=      2127 FMM=F ISym2X=0 I1Cent= 0 IOpClX= 0 NMat=1 NMatS=1 NMatT=0.
 FoFJK:  IHMeth= 1 ICntrl=    2127 DoSepK=F KAlg= 0 I1Cent=   0 FoldK=F
 IRaf=         0 NMat=   1 IRICut=       1 DoRegI=T DoRafI=F ISym2E= 0.
 FoFCou: FMM=F IPFlag=           0 FMFlag=      100000 FMFlg1=         800
         NFxFlg=           0 DoJE=F BraDBF=F KetDBF=F FulRan=T
         wScrn=  0.000000 ICntrl=    2127 IOpCl=  0 I1Cent=           0 NGrid=           0
         NMat0=    1 NMatS0=      1 NMatT0=    0 NMatD0=    1 NMtDS0=    0 NMtDT0=    0
 Symmetry not used in FoFCou.
 Leave Link  703 at Fri Jul  8 18:12:03 2022, MaxMem=    33554432 cpu:         2.4
 (Enter /opt/apps/apps/binapps/gaussian/g09d01_em64t/g09/l716.exe)
 Dipole        = 5.25691632D-01 6.00112720D-01-2.78594027D-15
 -------------------------------------------------------------------
 Center     Atomic                   Forces (Hartrees/Bohr)
 Number     Number              X              Y              Z
 -------------------------------------------------------------------
      1        8           0.029102177    0.087242136    0.000000000
      2        1          -0.026674154   -0.010235375    0.000000000
      3        1          -0.002428023   -0.077006761    0.000000000
 -------------------------------------------------------------------
 Cartesian Forces:  Max     0.087242136 RMS     0.041110065
 Z-matrix is all fixed cartesians, so copy forces.
 Force constants in Cartesian coordinates:
                1             2             3             4             5
      1  0.521096D+00
      2  0.124346D-01  0.406277D+00
      3  0.000000D+00  0.000000D+00  0.100000D+01
      4 -0.480256D+00  0.000000D+00  0.000000D+00  0.480256D+00
      5 -0.412794D-01 -0.487496D-01  0.000000D+00  0.000000D+00  0.449762D-01
      6  0.000000D+00  0.000000D+00  0.000000D+00  0.000000D+00  0.000000D+00
      7 -0.408398D-01 -0.124346D-01  0.000000D+00  0.000000D+00  0.412794D-01
      8  0.288448D-01 -0.357528D+00  0.000000D+00  0.000000D+00  0.377338D-02
      9  0.000000D+00  0.000000D+00  0.000000D+00  0.000000D+00  0.000000D+00
                6             7             8             9
      6  0.100000D+01
      7  0.000000D+00  0.408398D-01
      8  0.000000D+00 -0.288448D-01  0.353754D+00
      9  0.000000D+00  0.000000D+00  0.000000D+00  0.100000D+01
 Leave Link  716 at Fri Jul  8 18:12:03 2022, MaxMem=    33554432 cpu:         0.0
 (Enter /opt/apps/apps/binapps/gaussian/g09d01_em64t/g09/l103.exe)

 GradGradGradGradGradGradGradGradGradGradGradGradGradGradGradGradGradGrad
 Berny optimization.
 Search for a local minimum.
 Step number   1 out of a maximum of    2
 All quantities printed in internal units (Hartrees-Bohrs-Radians)
 Second derivative matrix not updated -- first step.
 The second derivative matrix:
                          X1        Y1        Z1        X2        Y2
           X1           0.52110
           Y1           0.01243   0.40628
           Z1           0.00000   0.00000   1.00000
           X2          -0.48026   0.00000   0.00000   0.48026
           Y2          -0.04128  -0.04875   0.00000   0.00000   0.04498
           Z2           0.00000   0.00000   0.00000   0.00000   0.00000
           X3          -0.04084  -0.01243   0.00000   0.00000   0.04128
           Y3           0.02884  -0.35753   0.00000   0.00000   0.00377
           Z3           0.00000   0.00000   0.00000   0.00000   0.00000
                          Z2        X3        Y3        Z3
           Z2           1.00000
           X3           0.00000   0.04084
           Y3           0.00000  -0.02884   0.35375
           Z3           0.00000   0.00000   0.00000   1.00000
 ITU=  0
     Eigenvalues ---    0.11583   0.60300   0.80289
 Angle between quadratic step and forces=  29.34 degrees.
 Linear search not attempted -- first point.
 TrRot=  0.010939  0.050585  0.000000 -0.004303  0.000000 -0.004303
 Variable       Old X    -DE/DX   Delta X   Delta X   Delta X     New X
                                 (Linear)    (Quad)   (Total)
    X1        0.00000   0.02910   0.00000   0.02686   0.03845   0.03845
    Y1        0.00000   0.08724   0.00000   0.07519   0.12554   0.12554
    Z1        0.00000   0.00000   0.00000   0.00000   0.00000   0.00000
    X2        1.88612  -0.02667   0.00000  -0.02868  -0.01837   1.86774
    Y2        0.00000  -0.01024   0.00000  -0.06562  -0.03102  -0.03102
    Z2        0.00000   0.00000   0.00000   0.00000   0.00000   0.00000
    X3       -0.18630  -0.00243   0.00000  -0.04729  -0.02007  -0.20637
    Y3        2.03800  -0.07701   0.00000  -0.14704  -0.09452   1.94348
    Z3        0.00000   0.00000   0.00000   0.00000   0.00000   0.00000
         Item               Value     Threshold  Converged?
 Maximum Force            0.087242     0.000450     NO
 RMS     Force            0.041110     0.000300     NO
 Maximum Displacement     0.125540     0.001800     NO
 RMS     Displacement     0.055652     0.001200     NO
 Predicted change in Energy=-1.010761D-02
 GradGradGradGradGradGradGradGradGradGradGradGradGradGradGradGradGradGrad

 Leave Link  103 at Fri Jul  8 18:12:03 2022, MaxMem=    33554432 cpu:         0.0
 (Enter /opt/apps/apps/binapps/gaussian/g09d01_em64t/g09/l9999.exe)
 1\1\GINC-NODE684\Force\RB3LYP\Aug-CC-pVTZ\H2O1\ZZALSGWL\08-Jul-2022\0\
 \#p B3LYP/AUG-cc-pVTZ nosymm output=wfn force\\WATER_MONOMER0\\0,1\O,0
 .,0.,0.\H,0.99809039,0.,0.\H,-0.09858308,1.07846305,0.\\Version=ES64L-
 G09RevD.01\HF=-76.4535271\RMSD=1.122e-09\RMSF=4.111e-02\Dipole=0.52569
 16,0.6001127,0.\Quadrupole=0.6101496,0.7490762,-1.3592258,-0.333571,0.
 ,0.\PG=CS [SG(H2O1)]\\@

 Writing a WFN file to "GAUSSIAN_ONLY/WATER_MONOMER0.wfn"


 WHEN A MATHEMATICIAN ENGAGED IN INVESTIGATING
 PHYSICAL ACTIONS AND RESULTS HAS ARRIVED AT HIS
 CONCLUSIONS, MAY THEY NOT BE EXPRESSED IN COMMON
 LANGUAGE AS FULLY, CLEARLY, AND DEFINITELY AS IN
 MATHEMATICAL FORMULAE?
           - LETTER FROM M. FARADAY TO J.C. MAXWELL, 1857.
 Job cpu time:       0 days  0 hours  0 minutes  7.7 seconds.
 File lengths (MBytes):  RWF=      5 Int=      0 D2E=      0 Chk=      2 Scr=      1
 Normal termination of Gaussian 09 at Fri Jul  8 18:12:03 2022.
