WD_FSv2_small00000
GAUSSIAN             10 MOL ORBITALS    252 PRIMITIVES        6 NUCLEI   B3LYP
O      1    (CENTRE  1)   0.00000000  0.00000000  0.00000000  CHARGE = 8.0
H      2    (CENTRE  2)   1.83482414  0.00000000  0.00000000  CHARGE = 1.0
H      3    (CENTRE  3)  -0.41201946  1.93933561  0.00000000  CHARGE = 1.0
O      4    (CENTRE  4)  -3.45155315 -2.63784816 -3.03195432  CHARGE = 8.0
H      5    (CENTRE  5)  -3.57745538 -3.71881865 -4.61040152  CHARGE = 1.0
H      6    (CENTRE  6)  -2.08479435 -1.34612492 -3.46713612  CHARGE = 1.0
CENTRE ASSIGNMENTS    1  1  1  1  1  1  1  1  1  1  1  1  1  1  1  1  1  1  1  1
CENTRE ASSIGNMENTS    1  1  1  1  1  1  1  1  1  1  1  1  1  1  1  1  1  1  1  1
CENTRE ASSIGNMENTS    1  1  1  1  1  1  1  1  1  1  1  1  1  1  1  1  1  1  1  1
CENTRE ASSIGNMENTS    1  1  1  1  1  1  1  1  1  1  1  1  2  2  2  2  2  2  2  2
CENTRE ASSIGNMENTS    2  2  2  2  2  2  2  2  2  2  2  2  2  2  2  2  2  2  2  3
CENTRE ASSIGNMENTS    3  3  3  3  3  3  3  3  3  3  3  3  3  3  3  3  3  3  3  3
CENTRE ASSIGNMENTS    3  3  3  3  3  3  4  4  4  4  4  4  4  4  4  4  4  4  4  4
CENTRE ASSIGNMENTS    4  4  4  4  4  4  4  4  4  4  4  4  4  4  4  4  4  4  4  4
CENTRE ASSIGNMENTS    4  4  4  4  4  4  4  4  4  4  4  4  4  4  4  4  4  4  4  4
CENTRE ASSIGNMENTS    4  4  4  4  4  4  4  4  4  4  4  4  4  4  4  4  4  4  5  5
CENTRE ASSIGNMENTS    5  5  5  5  5  5  5  5  5  5  5  5  5  5  5  5  5  5  5  5
CENTRE ASSIGNMENTS    5  5  5  5  5  6  6  6  6  6  6  6  6  6  6  6  6  6  6  6
CENTRE ASSIGNMENTS    6  6  6  6  6  6  6  6  6  6  6  6
TYPE ASSIGNMENTS      1  1  1  1  1  1  1  1  1  1  1  1  1  1  1  1  2  2  2  3
TYPE ASSIGNMENTS      3  3  4  4  4  2  3  4  2  3  4  2  3  4  5  6  7  8  9 10
TYPE ASSIGNMENTS      5  6  7  8  9 10  5  6  7  8  9 10 11 12 13 17 14 15 18 19
TYPE ASSIGNMENTS     16 20 11 12 13 17 14 15 18 19 16 20  1  1  1  1  1  1  2  3
TYPE ASSIGNMENTS      4  2  3  4  2  3  4  5  6  7  8  9 10  5  6  7  8  9 10  1
TYPE ASSIGNMENTS      1  1  1  1  1  2  3  4  2  3  4  2  3  4  5  6  7  8  9 10
TYPE ASSIGNMENTS      5  6  7  8  9 10  1  1  1  1  1  1  1  1  1  1  1  1  1  1
TYPE ASSIGNMENTS      1  1  2  2  2  3  3  3  4  4  4  2  3  4  2  3  4  2  3  4
TYPE ASSIGNMENTS      5  6  7  8  9 10  5  6  7  8  9 10  5  6  7  8  9 10 11 12
TYPE ASSIGNMENTS     13 17 14 15 18 19 16 20 11 12 13 17 14 15 18 19 16 20  1  1
TYPE ASSIGNMENTS      1  1  1  1  2  3  4  2  3  4  2  3  4  5  6  7  8  9 10  5
TYPE ASSIGNMENTS      6  7  8  9 10  1  1  1  1  1  1  2  3  4  2  3  4  2  3  4
TYPE ASSIGNMENTS      5  6  7  8  9 10  5  6  7  8  9 10
EXPONENTS  1.5330000D+04 2.2990000D+03 5.2240000D+02 1.4730000D+02 4.7550000D+01
EXPONENTS  1.6760000D+01 6.2070000D+00 5.2240000D+02 1.4730000D+02 4.7550000D+01
EXPONENTS  1.6760000D+01 6.2070000D+00 6.8820000D-01 1.7520000D+00 2.3840000D-01
EXPONENTS  7.3760000D-02 3.4460000D+01 7.7490000D+00 2.2800000D+00 3.4460000D+01
EXPONENTS  7.7490000D+00 2.2800000D+00 3.4460000D+01 7.7490000D+00 2.2800000D+00
EXPONENTS  7.1560000D-01 7.1560000D-01 7.1560000D-01 2.1400000D-01 2.1400000D-01
EXPONENTS  2.1400000D-01 5.9740000D-02 5.9740000D-02 5.9740000D-02 2.3140000D+00
EXPONENTS  2.3140000D+00 2.3140000D+00 2.3140000D+00 2.3140000D+00 2.3140000D+00
EXPONENTS  6.4500000D-01 6.4500000D-01 6.4500000D-01 6.4500000D-01 6.4500000D-01
EXPONENTS  6.4500000D-01 2.1400000D-01 2.1400000D-01 2.1400000D-01 2.1400000D-01
EXPONENTS  2.1400000D-01 2.1400000D-01 1.4280000D+00 1.4280000D+00 1.4280000D+00
EXPONENTS  1.4280000D+00 1.4280000D+00 1.4280000D+00 1.4280000D+00 1.4280000D+00
EXPONENTS  1.4280000D+00 1.4280000D+00 5.0000000D-01 5.0000000D-01 5.0000000D-01
EXPONENTS  5.0000000D-01 5.0000000D-01 5.0000000D-01 5.0000000D-01 5.0000000D-01
EXPONENTS  5.0000000D-01 5.0000000D-01 3.3870000D+01 5.0950000D+00 1.1590000D+00
EXPONENTS  3.2580000D-01 1.0270000D-01 2.5260000D-02 1.4070000D+00 1.4070000D+00
EXPONENTS  1.4070000D+00 3.8800000D-01 3.8800000D-01 3.8800000D-01 1.0200000D-01
EXPONENTS  1.0200000D-01 1.0200000D-01 1.0570000D+00 1.0570000D+00 1.0570000D+00
EXPONENTS  1.0570000D+00 1.0570000D+00 1.0570000D+00 2.4700000D-01 2.4700000D-01
EXPONENTS  2.4700000D-01 2.4700000D-01 2.4700000D-01 2.4700000D-01 3.3870000D+01
EXPONENTS  5.0950000D+00 1.1590000D+00 3.2580000D-01 1.0270000D-01 2.5260000D-02
EXPONENTS  1.4070000D+00 1.4070000D+00 1.4070000D+00 3.8800000D-01 3.8800000D-01
EXPONENTS  3.8800000D-01 1.0200000D-01 1.0200000D-01 1.0200000D-01 1.0570000D+00
EXPONENTS  1.0570000D+00 1.0570000D+00 1.0570000D+00 1.0570000D+00 1.0570000D+00
EXPONENTS  2.4700000D-01 2.4700000D-01 2.4700000D-01 2.4700000D-01 2.4700000D-01
EXPONENTS  2.4700000D-01 1.5330000D+04 2.2990000D+03 5.2240000D+02 1.4730000D+02
EXPONENTS  4.7550000D+01 1.6760000D+01 6.2070000D+00 5.2240000D+02 1.4730000D+02
EXPONENTS  4.7550000D+01 1.6760000D+01 6.2070000D+00 6.8820000D-01 1.7520000D+00
EXPONENTS  2.3840000D-01 7.3760000D-02 3.4460000D+01 7.7490000D+00 2.2800000D+00
EXPONENTS  3.4460000D+01 7.7490000D+00 2.2800000D+00 3.4460000D+01 7.7490000D+00
EXPONENTS  2.2800000D+00 7.1560000D-01 7.1560000D-01 7.1560000D-01 2.1400000D-01
EXPONENTS  2.1400000D-01 2.1400000D-01 5.9740000D-02 5.9740000D-02 5.9740000D-02
EXPONENTS  2.3140000D+00 2.3140000D+00 2.3140000D+00 2.3140000D+00 2.3140000D+00
EXPONENTS  2.3140000D+00 6.4500000D-01 6.4500000D-01 6.4500000D-01 6.4500000D-01
EXPONENTS  6.4500000D-01 6.4500000D-01 2.1400000D-01 2.1400000D-01 2.1400000D-01
EXPONENTS  2.1400000D-01 2.1400000D-01 2.1400000D-01 1.4280000D+00 1.4280000D+00
EXPONENTS  1.4280000D+00 1.4280000D+00 1.4280000D+00 1.4280000D+00 1.4280000D+00
EXPONENTS  1.4280000D+00 1.4280000D+00 1.4280000D+00 5.0000000D-01 5.0000000D-01
EXPONENTS  5.0000000D-01 5.0000000D-01 5.0000000D-01 5.0000000D-01 5.0000000D-01
EXPONENTS  5.0000000D-01 5.0000000D-01 5.0000000D-01 3.3870000D+01 5.0950000D+00
EXPONENTS  1.1590000D+00 3.2580000D-01 1.0270000D-01 2.5260000D-02 1.4070000D+00
EXPONENTS  1.4070000D+00 1.4070000D+00 3.8800000D-01 3.8800000D-01 3.8800000D-01
EXPONENTS  1.0200000D-01 1.0200000D-01 1.0200000D-01 1.0570000D+00 1.0570000D+00
EXPONENTS  1.0570000D+00 1.0570000D+00 1.0570000D+00 1.0570000D+00 2.4700000D-01
EXPONENTS  2.4700000D-01 2.4700000D-01 2.4700000D-01 2.4700000D-01 2.4700000D-01
EXPONENTS  3.3870000D+01 5.0950000D+00 1.1590000D+00 3.2580000D-01 1.0270000D-01
EXPONENTS  2.5260000D-02 1.4070000D+00 1.4070000D+00 1.4070000D+00 3.8800000D-01
EXPONENTS  3.8800000D-01 3.8800000D-01 1.0200000D-01 1.0200000D-01 1.0200000D-01
EXPONENTS  1.0570000D+00 1.0570000D+00 1.0570000D+00 1.0570000D+00 1.0570000D+00
EXPONENTS  1.0570000D+00 2.4700000D-01 2.4700000D-01 2.4700000D-01 2.4700000D-01
EXPONENTS  2.4700000D-01 2.4700000D-01
MO    1     MO 0.00000000 OCC NO =    2.0000000  ORB. ENERGY =  -19.155826
  4.96729400D-01  9.25821930D-01  1.56986120D+00  2.37581800D+00  2.96364570D+00
  2.54324890D+00  9.73929220D-01  3.36966690D-05  3.61543140D-04  1.33271610D-03
  3.89678370D-03  4.69581390D-03 -5.65660540D-03  5.56428470D-02 -5.49221180D-04
 -1.86147530D-04  4.70235750D-03  4.55970500D-03  3.07595010D-03  6.23516510D-03
  6.04601280D-03  4.07860450D-03 -3.86245080D-04 -3.74527810D-04 -2.52654240D-04
  6.04705020D-04 -1.13045460D-03  1.69781010D-04 -5.25308730D-05 -8.60105960D-04
 -8.76317940D-05  2.45048600D-05 -1.24109060D-05  8.57636900D-06  1.89679570D-03
  3.68663460D-04 -2.26545910D-03 -1.38678380D-03  2.79839380D-04  2.80935240D-04
  1.15578560D-04 -6.13748460D-04  4.98169890D-04  6.66487250D-04 -1.40978790D-04
 -1.35885070D-04 -2.74154350D-05 -1.40484480D-04  1.67899910D-04  1.79028820D-04
  8.52845930D-05  7.16256510D-05  7.04704900D-04  2.32530560D-05  5.98661740D-05
 -1.18599160D-03  2.61751620D-05 -8.23227420D-05 -9.28123060D-04 -9.59343310D-05
 -9.72757800D-05  1.69113050D-04 -2.59134590D-04 -1.82480210D-04 -1.44079470D-05
  5.92213810D-04  2.69013140D-04  1.44661190D-05  1.85189950D-04  2.78427470D-04
  2.87577210D-05 -4.33367860D-05  1.95198730D-04  3.52048950D-04  5.19095970D-04
  1.91057160D-04 -2.57507000D-04 -1.19389350D-05  1.73798040D-04 -1.51699780D-04
  9.40884790D-06  4.01572070D-04 -9.59600360D-05 -2.16454920D-05  7.27512360D-05
 -1.46938970D-05 -1.32509070D-05 -1.73392640D-03  8.32048810D-04  9.01877560D-04
  2.11624180D-04 -4.89175380D-05  5.89647320D-05 -3.51427280D-05  3.71301490D-05
 -1.98742050D-06  3.09914520D-05  1.45510560D-07 -2.36902670D-05  1.19691220D-04
  2.15868050D-04  3.18297320D-04  1.91289280D-03  3.74179930D-04  1.59387410D-05
  5.84987880D-05 -1.00430760D-03 -3.01054930D-05  1.35919160D-04 -9.41500820D-04
  1.84723280D-06  9.14158350D-06 -5.61529820D-05 -2.38391310D-06  4.55110280D-05
 -1.50697750D-04  1.05186720D-04  2.39710380D-04  4.36710310D-05 -3.17235230D-06
 -1.27321100D-06  2.62852770D-05 -2.50120660D-05 -2.97641660D-06 -2.28546820D-05
 -1.28789060D-05 -1.77552720D-05 -3.30929080D-05 -5.61136760D-05 -8.49220820D-05
 -1.05933600D-04 -9.09067920D-05 -3.48124720D-05  2.79269790D-09  2.99638150D-08
  1.10452270D-07  3.22955950D-07  3.89177620D-07 -4.68805680D-07 -4.80923690D-05
  3.80386540D-04  1.87866870D-04 -6.42300380D-05 -6.22815310D-05 -4.20147530D-05
 -7.35550970D-06 -7.13237020D-06 -4.81145480D-06  2.01020120D-05  1.94921900D-05
  1.31493160D-05  4.67323980D-05 -2.39761600D-05 -5.23266460D-05 -3.01585170D-06
 -2.35327900D-05 -2.31442960D-04  2.33580620D-05  2.17851960D-05  8.85965530D-06
  5.67056910D-05  1.60493640D-05 -7.27550560D-05 -1.56659510D-04 -4.51208840D-05
 -1.49210670D-05 -5.29111060D-05 -1.04772330D-05  6.33883390D-05  9.55431640D-05
  3.56162070D-05  8.19856480D-05 -2.54292070D-05  5.96983910D-06  1.94593680D-05
 -4.11564090D-05 -5.47177090D-05 -2.62217050D-05 -1.93363220D-05 -4.19161090D-05
 -2.18211890D-05 -2.28152700D-05  1.25773330D-04  3.49483640D-05  8.08242360D-05
 -2.49993900D-08  3.05152040D-05  2.50487750D-04  3.33555700D-06  1.43947660D-05
  9.48274240D-06  6.50446710D-06 -2.56912790D-05  3.25496080D-06 -1.65111380D-05
 -1.74930190D-05 -3.17031880D-05 -1.33141730D-04  5.62052250D-06  1.01368440D-05
  1.49467700D-05 -2.78337110D-04 -2.07976730D-05  9.74534880D-06  8.50670870D-05
 -3.50303840D-05 -4.21564910D-05 -4.99874120D-05 -8.80474430D-05 -1.20927880D-04
 -2.15266620D-05 -7.47181640D-06 -8.49841680D-06  2.05046450D-05  6.25174600D-06
 -2.67563910D-05  1.15388240D-07  4.80300530D-05 -1.07589290D-04 -1.46623860D-07
  9.31579420D-07 -7.84955560D-07 -5.22486960D-06 -1.89556920D-05 -6.16428340D-06
  1.13671440D-05  2.05011130D-05  3.02288780D-05 -6.53753880D-05 -2.95740150D-04
 -1.12947720D-05  7.43390370D-05  4.35538250D-05  4.58722880D-05  2.77642070D-05
 -4.92233220D-06  1.89498820D-05  4.28683070D-05  3.07143310D-05 -1.36150160D-05
  1.03032960D-05  4.36290120D-06 -1.46661970D-05  2.38337490D-06 -8.14176270D-05
 -8.43551570D-05 -3.34119430D-05  2.59809810D-05  7.43096250D-06 -5.95793640D-05
 -7.47184680D-05 -3.10708040D-05
MO    2     MO 0.00000000 OCC NO =    2.0000000  ORB. ENERGY =  -19.125124
  1.78517470D-05  3.32727210D-05  5.64185730D-05  8.53835110D-05  1.06509200D-04
  9.14007400D-05  3.50016280D-05  1.76658100D-07  1.89542540D-06  6.98689510D-06
  2.04292710D-05  2.46182650D-05 -2.96553090D-05 -4.35119820D-05  4.09146700D-04
  1.01789520D-04 -1.90712180D-05 -1.84926670D-05 -1.24750440D-05  2.29122510D-05
  2.22171760D-05  1.49875760D-05  8.80212960D-05  8.53510490D-05  5.75773130D-05
  1.01309440D-04 -8.89490690D-06 -6.27197510D-05  1.48740940D-04  1.03319220D-04
  7.65578450D-06 -6.10644550D-06 -8.29003160D-06 -9.55034920D-06 -2.37595260D-05
 -2.11116670D-05  4.48711930D-05 -7.52585890D-05 -1.43267580D-04 -9.06412370D-05
  7.33313430D-05 -1.73903320D-05 -5.59410110D-05  1.51894110D-05  7.95657540D-05
  5.46976460D-05  1.82002710D-05  2.35632490D-05 -4.17635200D-05 -5.52857990D-05
 -5.28024480D-05 -2.34279020D-05  6.30728010D-05  1.03177220D-05 -2.08619540D-05
  5.87688240D-06  1.72794480D-05 -9.69699930D-06 -1.95095290D-04 -4.82326130D-05
  7.22828600D-05 -2.20754080D-04  9.26142780D-06  1.10036970D-05  8.99076270D-06
 -5.86972350D-05 -3.10421950D-05 -4.99714310D-06  3.09129520D-05 -1.96889550D-06
 -2.19751450D-05  5.17410420D-05  6.22989150D-06  1.12358660D-05  1.65672780D-05
 -3.63075300D-04 -7.54803630D-05 -3.62149250D-07  7.68587410D-05 -1.03008730D-05
 -2.23127390D-05  1.72569870D-04  4.25722030D-05  3.45282630D-05  1.47017250D-05
  9.86605050D-06  1.11521940D-05 -7.70098240D-05  6.53202890D-05  1.16895350D-05
 -3.20202030D-05  9.61891350D-06 -6.23629020D-05 -1.18460050D-06 -6.80155270D-06
  7.98615320D-06 -4.48431600D-06 -2.51540730D-06  9.35422950D-06  4.49798220D-06
  8.11229610D-06  1.19615760D-05 -2.65241990D-04 -5.19887170D-06  2.03493990D-06
  1.06633660D-05  3.34466330D-05  4.11135540D-05  2.86219350D-07  7.93642290D-05
 -8.37573930D-06 -6.90914090D-06 -3.28582250D-06 -3.04007300D-06  6.64296390D-06
 -1.03217880D-05  3.67882450D-06 -5.06469260D-05 -6.57722810D-05 -1.93886830D-05
 -1.83383960D-06  2.52754560D-06 -6.93705980D-07  1.14614320D-05  2.68922540D-05
  1.20578600D-05  4.96691370D-01  9.25751040D-01  1.56974100D+00  2.37563610D+00
  2.96341870D+00  2.54305420D+00  9.73854640D-01  3.55489370D-05  3.81416770D-04
  1.40597400D-03  4.11098560D-03  4.95393750D-03 -5.96754270D-03  5.55872880D-02
 -1.70325870D-04 -1.74450750D-04  3.67771640D-03  3.56614780D-03  2.40570220D-03
  5.52227910D-04  5.35475310D-04  3.61228480D-04 -6.57490540D-03 -6.37544650D-03
 -4.30083860D-03 -3.26735840D-04 -4.18771680D-05  5.55893370D-04 -1.73723460D-04
  4.33846200D-05  4.71742820D-04 -1.79499330D-05 -1.23542180D-05 -5.58109910D-06
 -5.46888260D-04  3.90649580D-04  1.56238680D-04  3.13127320D-03 -3.68253410D-04
  2.12601970D-03  1.36725450D-04 -1.24872770D-04 -1.18526900D-05 -7.57711330D-04
 -3.13556700D-05 -5.63492380D-04  3.03506370D-05 -1.48602590D-05 -1.54903780D-05
 -1.20176510D-04  5.23228370D-05 -7.40993890D-05 -2.09164350D-05  6.36916670D-05
  6.51144150D-05  3.75043370D-04  7.15049070D-04  1.80013830D-04 -3.12294070D-04
 -9.06124070D-04 -3.75357080D-04 -7.71444210D-04  3.99204750D-07 -3.42707680D-05
 -3.60415600D-05 -2.21471160D-04 -3.98948250D-04 -1.24587180D-04  2.20273540D-04
  5.01760560D-04  2.32711860D-04  4.08897250D-04  1.66882640D-04  3.00979720D-04
  4.43794420D-04  8.49873770D-04 -4.16659590D-05 -3.05740650D-06 -8.47282680D-05
  2.41707780D-04  5.36183980D-04 -3.15731330D-05  9.54259340D-05  2.09299270D-04
  8.17340670D-06 -2.00911370D-05 -6.43676970D-06  4.27990990D-04 -2.74778590D-05
 -4.00513130D-04 -2.10633300D-04 -2.82832670D-04 -1.25545400D-03  3.77663450D-07
 -8.32736330D-06  7.94969990D-06 -8.40238240D-07  1.16972810D-06 -2.02795810D-06
  1.57372580D-04  2.83827920D-04  4.18504110D-04  6.90250910D-04  8.20215890D-05
  5.81384550D-06 -4.68894710D-04 -3.48120040D-04  2.36550980D-04 -9.27034260D-05
 -7.37745910D-05  5.79235990D-05 -9.62988740D-06 -1.68775090D-05 -4.99956970D-05
 -2.10414580D-04 -2.07840730D-04  4.18255310D-04 -1.26473480D-03  3.14731200D-04
  2.96159870D-04  9.29216110D-06  2.11099320D-07 -9.50326050D-06  1.98193370D-05
  3.38059130D-05  2.95682080D-05
MO    3     MO 0.00000000 OCC NO =    2.0000000  ORB. ENERGY =   -1.012767
 -1.04931150D-01 -1.95574420D-01 -3.31623900D-01 -5.01877520D-01 -6.26052640D-01
 -5.37246310D-01 -2.05736790D-01 -1.62655930D-03 -1.74519140D-02 -6.43310400D-02
 -1.88100190D-01 -2.26669870D-01  2.73047880D-01  1.55063640D-01  7.03818100D-02
  3.29974710D-03  2.25078860D-01  2.18250780D-01  1.47230690D-01  2.03578120D-01
  1.97402300D-01  1.33166430D-01 -6.65691770D-03 -6.45497090D-03 -4.35448530D-03
  4.97963070D-02  5.10361820D-02 -1.38229910D-03  2.37990370D-03  4.45323580D-03
 -8.82204780D-04  3.00984070D-05  5.89580270D-05 -5.67212350D-05  1.86441830D-02
  8.28671300D-03 -2.69308960D-02 -5.66522330D-03  9.59956420D-06 -1.10105080D-04
  2.64363620D-03  4.29072850D-03 -6.93436470D-03 -6.54212400D-04  1.32217610D-04
 -2.86593340D-05 -3.93308610D-04  1.53859710D-04  2.39448900D-04  2.37857900D-04
  2.24098420D-04  6.06011550D-05  4.82950760D-03  3.78857720D-03  1.32594300D-04
 -9.27196270D-03 -3.91049790D-03 -1.28179370D-04 -5.21656000D-03 -7.45523370D-03
 -2.69603540D-04  3.74631890D-05 -1.12745730D-04  2.81405900D-04 -7.81123980D-05
  6.97153840D-04 -1.12600750D-04  6.78233820D-05 -3.58916670D-04 -7.31616970D-04
  1.66513810D-04 -2.63781690D-05  2.47919080D-02  4.47132270D-02  6.59296280D-02
  2.65655600D-02 -9.16087210D-04 -6.61875160D-05 -3.06980040D-02  1.83341500D-03
 -1.65431540D-04 -5.39798660D-03  4.14046660D-04 -7.61691930D-05  4.19080760D-04
  3.56782700D-05  4.08036370D-05  6.81227790D-03 -3.60398280D-03 -3.20829510D-03
 -4.08369480D-04  1.47520180D-04  3.16879840D-05 -1.00934460D-04  9.76736940D-05
  3.26076170D-06 -8.21832180D-05 -5.12753380D-05 -2.52429030D-05  1.98199140D-02
  3.57460320D-02  5.27075030D-02  1.92300750D-02 -9.85320730D-04 -4.77204960D-05
  6.33113290D-03 -2.18089450D-02 -2.41892720D-04  9.92347630D-04 -3.60026420D-03
  4.21285340D-05 -3.60777860D-05  3.40526280D-04  5.47684660D-05 -1.57307430D-03
  3.39366640D-03 -1.82059210D-03 -2.30399440D-03 -2.36017810D-05  1.20340780D-04
  9.40614630D-06  7.35733440D-05 -8.29794900D-05  5.58949510D-06 -3.97959270D-05
 -5.59977240D-05 -8.23167680D-03 -1.53424920D-02 -2.60153510D-02 -3.93714680D-02
 -4.91128030D-02 -4.21460910D-02 -1.61397140D-02 -1.26825130D-04 -1.36075050D-03
 -5.01598240D-03 -1.46664380D-02 -1.76737710D-02  2.12899310D-02  1.19689470D-02
  6.04662980D-03  3.36146260D-04  1.57321440D-02  1.52548870D-02  1.02908570D-02
  6.39580500D-03  6.20177950D-03  4.18368380D-03 -1.51722290D-02 -1.47119590D-02
 -9.92460060D-03  3.77564530D-03  1.32477870D-03 -3.87165060D-03  2.03206730D-04
 -1.05319500D-04 -7.06479210D-04  1.02447080D-05  7.90818310D-06 -2.83964120D-05
 -2.05657560D-04  2.36720390D-04 -3.10628310D-05  3.52248890D-03 -1.15085280D-03
  1.55388880D-03 -1.74769560D-04 -7.51891260D-05  2.49958680D-04  1.08580970D-03
 -9.11245370D-05  6.61014110D-04 -6.17052230D-05 -3.00307260D-05  9.17359490D-05
 -9.28230970D-05 -9.84924660D-05  2.99585150D-05 -8.55112100D-05 -4.93839280D-05
 -3.45673790D-05  4.96994940D-04  1.20563640D-03  4.91731050D-04 -2.40461310D-04
 -1.05748460D-03 -3.88028910D-04 -2.84725690D-05 -2.14849030D-05  1.23791780D-05
 -1.30266650D-06 -3.56302680D-05 -8.38054390D-05 -4.09684510D-05  1.00084980D-04
  4.66679030D-05  4.48764500D-05 -2.32917080D-04  1.58639870D-03  2.86113540D-03
  4.21874240D-03  8.27909880D-04  5.19822730D-05  1.63841380D-05  2.99229910D-04
  1.00824660D-03  1.42176410D-03  3.72660760D-05  2.81952890D-05 -3.59843460D-05
  1.83349500D-05  2.83424780D-05  4.36266100D-06 -9.10405440D-05 -9.11583490D-06
  1.00156380D-04  2.73456590D-05  2.21337770D-04  2.25650210D-04 -7.03468570D-06
  1.59351860D-05 -8.90049990D-06  5.15043450D-05 -2.22723150D-05 -1.19012600D-05
  2.18970310D-03  3.94921970D-03  5.82312220D-03  2.73208770D-03 -6.85176230D-04
 -2.32891540D-05 -1.08708290D-03 -1.23709770D-03  9.21408100D-04 -3.87457880D-05
 -2.63660360D-05  5.30171250D-04  6.73894770D-05  1.10246880D-04  6.01905420D-06
  3.29790870D-05  5.16299840D-05 -8.46090700D-05  6.67671020D-04 -1.42351570D-04
 -1.38794950D-04  1.09214940D-05  1.49718180D-05 -2.58933120D-05 -1.32272400D-04
 -1.60818200D-04 -1.38702630D-04
MO    4     MO 0.00000000 OCC NO =    2.0000000  ORB. ENERGY =   -0.975428
  8.85230160D-03  1.64992350D-02  2.79767710D-02  4.23398680D-02  5.28156480D-02
  4.53236840D-02  1.73565630D-02  1.38685560D-04  1.48800510D-03  5.48506690D-03
  1.60380140D-02  1.93265870D-02 -2.32809220D-02 -1.33544530D-02 -5.38072770D-03
 -4.90315180D-04 -2.79323790D-02 -2.70850110D-02 -1.82713890D-02 -2.34456540D-02
 -2.27343980D-02 -1.53364900D-02 -6.50337500D-03 -6.30608610D-03 -4.25404840D-03
 -5.93077030D-03 -5.71277550D-03 -1.55900030D-03 -5.13081500D-04 -6.65622910D-04
 -3.07933470D-04 -1.64995640D-05 -2.01020500D-05  1.01969230D-05 -1.79671340D-03
 -9.08240150D-04  2.70495350D-03  5.18664630D-04  3.80014590D-04  1.82631740D-04
 -1.54314580D-04 -4.71067320D-04  6.25381900D-04  2.13870080D-04  4.24087540D-04
  3.33167020D-04  3.50595210D-05 -2.21933930D-05 -1.28661280D-05 -1.12601390D-04
 -1.09640120D-05  1.51973370D-05 -2.38437200D-04 -2.06459310D-04  1.01779500D-04
  6.92601910D-04  2.40158270D-04 -2.48915690D-04  2.27096780D-05  3.79219660D-04
 -5.64228150D-05 -9.51318870D-04 -8.42101330D-07 -2.93748060D-05  7.49516110D-06
 -1.22580030D-04 -4.04249530D-05 -7.37938010D-06  1.25106330D-04  1.28549370D-04
 -1.51061030D-05  1.78388580D-04 -2.32068580D-03 -4.18545230D-03 -6.17144700D-03
 -2.86639860D-03  1.44415040D-04  2.33100940D-05  2.92689540D-03 -2.83183920D-04
 -1.04831880D-04  7.68665700D-04  1.27464020D-04  4.07004060D-05 -2.45216090D-05
  4.80911220D-06  1.13491750D-05 -7.99625350D-04  4.58443940D-04  3.41181410D-04
 -5.26391470D-05  4.52019430D-05 -1.59183680D-04 -7.61655580D-06 -1.26170310D-06
  8.87825890D-06  1.04736340D-05  5.92562840D-06  2.70260270D-07 -1.77891100D-03
 -3.20833930D-03 -4.73069440D-03 -2.03453050D-03  2.93964730D-04  2.87687790D-05
 -6.66878280D-04  1.94886320D-03 -8.08081470D-06 -5.87993840D-06  4.26049320D-04
 -2.78318280D-05 -1.77892730D-05 -7.19220190D-05 -1.59053590D-05  1.61449500D-04
 -3.50279650D-04  1.88830150D-04  1.43089980D-04 -1.69477670D-04 -3.56302080D-07
  9.31188590D-06 -8.63135060D-06 -6.80535350D-07  5.83146630D-05  7.14748700D-05
  4.73807640D-05 -1.05195830D-01 -1.96067740D-01 -3.32460400D-01 -5.03143470D-01
 -6.27631810D-01 -5.38601470D-01 -2.06255750D-01 -1.63429460D-03 -1.75349080D-02
 -6.46369740D-02 -1.88994720D-01 -2.27747830D-01  2.74346390D-01  1.55585770D-01
  7.28417390D-02  3.58597240D-03  1.42773380D-01  1.38442150D-01  9.33922560D-02
  1.86283370D-02  1.80632200D-02  1.21853420D-02 -2.50310870D-01 -2.42717340D-01
 -1.63735680D-01  3.46797690D-02  4.99306510D-03 -6.01498900D-02  2.89750440D-03
  6.98936520D-04 -4.87640510D-03  8.03737530D-05  3.42379230D-05 -1.01779870D-04
 -7.00915390D-03  1.17824220D-03  5.83091170D-03  3.66967160D-02 -1.38507330D-02
  2.24849390D-02 -1.78228130D-03 -5.86979120D-05  1.84097920D-03  9.94779620D-03
 -5.17212350D-03  5.19050840D-03 -1.80564730D-05 -7.02594850D-05  8.83159580D-05
 -6.83038700D-05 -2.89566030D-04 -1.33841750D-04 -7.07789720D-04  4.94286960D-04
  4.51929100D-04  4.69957870D-03  1.00542550D-02  2.53069960D-03 -2.57620960D-03
 -1.15371160D-02 -3.88648690D-03 -9.47159240D-03 -1.39322240D-04 -9.90583390D-06
 -4.72727240D-05 -4.31054440D-05  2.26259550D-04 -1.15112890D-04  4.61072170D-04
 -1.96542050D-04  2.56931060D-04 -5.13973840D-04  2.22387000D-02  4.01084110D-02
  5.91398280D-02  2.23313520D-02 -7.99255430D-04 -3.80836020D-05  2.95239130D-03
  1.56113270D-02  2.06550620D-02  4.00618250D-04  2.57949580D-03  3.48279500D-03
 -3.30020530D-05 -1.86164490D-04 -2.38383980D-04 -2.48887270D-03 -1.67520610D-05
  2.50562480D-03  4.99628450D-04  1.03891950D-03  7.01650300D-03 -8.79712440D-06
 -5.79265290D-06  1.45897770D-05  4.31742320D-05 -2.08682550D-05  3.39709680D-05
  2.14244630D-02  3.86399010D-02  5.69745110D-02  2.07141090D-02 -1.50838860D-03
 -1.24672220D-04 -1.77594370D-02 -1.75680220D-02  3.80966580D-03 -2.78816570D-03
 -2.64875580D-03  3.90634660D-04  3.21129840D-04  2.72948590D-04 -2.28630890D-04
  1.18078520D-03  8.81825310D-04 -2.06261050D-03  6.44589890D-03 -2.01288330D-03
 -1.95851810D-03  1.79709640D-06  3.47267690D-05 -3.65238650D-05 -1.70600370D-05
 -1.27108390D-06  4.14286750D-05
MO    5     MO 0.00000000 OCC NO =    2.0000000  ORB. ENERGY =   -0.525251
  4.12007400D-03  7.67914050D-03  1.30210620D-02  1.97059930D-02  2.45816720D-02
  2.10947320D-02  8.07816170D-03  7.72559950D-05  8.28906120D-04  3.05550400D-03
  8.93411460D-03  1.07660430D-02 -1.29688390D-02 -5.94839750D-03 -1.39768620D-02
 -1.24183090D-03  1.17688490D+00  1.14118250D+00  7.69834980D-01 -8.36931310D-01
 -8.11541840D-01 -5.47461330D-01  1.75610590D-02  1.70283200D-02  1.14872040D-02
  2.48356840D-01 -1.82362400D-01  4.10657180D-03  2.60743630D-02 -2.19277710D-02
  7.78311580D-04  3.38548260D-04 -1.92666300D-04  4.09168170D-05  6.73576480D-02
 -6.39953450D-02 -3.36230250D-03  2.57599610D-02 -7.60188360D-04  1.07604500D-03
  1.04764360D-02 -1.13787340D-02  9.02297980D-04  6.33550690D-03 -9.30869150D-04
  3.50041240D-04 -2.82800230D-05 -3.74719240D-04  4.02999270D-04  4.54022240D-04
 -1.46064710D-04  2.35904800D-04  1.88624020D-03 -1.59246680D-03 -8.92168850D-05
  7.39233310D-03 -6.60638200D-03  2.60993670D-04 -1.30510540D-02  1.13837820D-02
  6.65698710D-06  4.23074340D-04 -2.61591840D-05 -5.73600190D-04 -3.33186120D-05
  6.11671270D-04  7.26169480D-04  1.10735770D-04 -5.33193720D-04  9.94631080D-04
 -1.07799390D-05 -2.50934580D-04  3.72068650D-02  6.71041130D-02  9.89449760D-02
  6.95413650D-02  8.19066010D-03 -1.44810990D-04 -3.11156860D-02 -9.45181670D-03
  1.78248020D-04 -1.24981560D-02 -4.23316610D-03 -4.70038040D-05  3.12264400D-04
 -4.14131610D-04 -4.72332210D-05  1.27692610D-02 -6.01883060D-03 -6.75043010D-03
  5.91851570D-03 -1.77345220D-04  1.58204410D-04  2.41744290D-04 -1.56288010D-04
 -8.54562870D-05  6.03988400D-04 -7.82804830D-06 -2.91452520D-05 -3.43176580D-02
 -6.18933090D-02 -9.12616480D-02 -5.76029510D-02 -7.55608030D-03  1.54468440D-04
  3.35641800D-03  2.48583010D-02  2.15933580D-04  2.36563530D-03  9.39815540D-03
  2.32956790D-04  3.52361770D-04 -1.83296990D-04 -1.65097710D-05  4.77798970D-03
 -9.62491330D-03  4.84692360D-03  3.27892280D-04  2.82145120D-05 -1.40657900D-04
  4.32504520D-04 -6.10630210D-04  1.78125690D-04 -1.01801800D-04 -4.10780360D-05
  9.70026950D-06 -6.40118500D-04 -1.19307560D-03 -2.02302740D-03 -3.06163680D-03
 -3.81915060D-03 -3.27739940D-03 -1.25506990D-03 -9.62700360D-06 -1.03291430D-04
 -3.80751660D-04 -1.11329550D-03 -1.34157530D-03  1.61606960D-03  9.92433310D-04
  8.39908510D-04  4.40015920D-04 -8.26787490D-02 -8.01705750D-02 -5.40825960D-02
 -1.48324740D-01 -1.43825110D-01 -9.70235660D-02 -7.82445350D-02 -7.58708790D-02
 -5.11820460D-02 -1.76431890D-02 -3.21276030D-02 -1.69770690D-02 -2.06749970D-03
 -4.41301950D-03 -2.44988660D-03  1.36933550D-05 -3.86635890D-05 -1.03050460D-05
 -4.19807300D-03 -1.50132260D-03  5.69939570D-03 -7.92806160D-03  2.89254940D-03
  1.03693430D-02 -6.62130400D-04 -3.88856850D-04  1.05098720D-03 -1.49595030D-03
  7.64343830D-04  2.10063700D-03 -1.56786460D-04 -6.41443720D-06  1.63200900D-04
 -1.16443640D-04  2.94813380D-05  4.81826050D-04  6.53602590D-04  2.55653850D-04
  1.69022970D-04 -2.21418250D-03 -2.31334340D-04  9.57990950D-04  2.53374760D-04
 -5.35627220D-04 -1.46505980D-03 -1.95252640D-03 -2.70133340D-05  9.97168380D-05
 -7.95690790D-05 -1.45638030D-07  1.84267870D-05  2.52298000D-04  8.11856390D-05
 -3.17577300D-04 -1.35907640D-05  3.70297500D-04  4.86935060D-03  8.78207430D-03
  1.29491630D-02  6.69216800D-03  4.92964190D-04 -1.69079940D-05 -5.38540290D-04
  1.29732310D-03  3.43879560D-03 -2.82622160D-04  3.69256210D-04  8.83730200D-04
 -8.78714160D-05 -5.07814280D-05 -6.58903150D-05 -6.67850130D-04 -2.30552760D-04
  8.98402890D-04  1.82374980D-06 -2.69721040D-04  1.56609390D-03 -3.49498290D-05
 -2.36983040D-05  5.86481330D-05 -1.22794520D-05 -6.47380820D-05  1.30635110D-04
 -4.72387810D-03 -8.51970870D-03 -1.25623060D-02 -7.72355200D-03 -9.45290710D-04
  2.77310810D-05  2.57104980D-03  1.18085480D-03 -2.03474360D-03  6.66359770D-04
 -1.83129310D-04 -1.35035640D-03 -3.52494350D-05 -2.06535440D-04 -6.46089950D-05
 -3.04838580D-04  1.74075190D-04  1.30763390D-04 -1.67965950D-03  1.34559170D-03
  6.72719610D-04  1.61472310D-04 -1.12134040D-04 -4.93382700D-05 -1.42107110D-04
  9.61017610D-05 -1.47309750D-04
MO    6     MO 0.00000000 OCC NO =    2.0000000  ORB. ENERGY =   -0.495781
 -1.78163950D-03 -3.32068320D-03 -5.63068490D-03 -8.52144290D-03 -1.06298280D-02
 -9.12197420D-03 -3.49323150D-03 -2.66154050D-05 -2.85565830D-04 -1.05264940D-03
 -3.07788510D-03 -3.70900120D-03  4.46788500D-03  2.41324440D-03  6.45370200D-03
  2.10272070D-04  3.11295120D-02  3.01851560D-02  2.03627280D-02 -2.99963240D-01
 -2.90863440D-01 -1.96214760D-01 -1.18216520D-01 -1.14630250D-01 -7.73288920D-02
  6.25940880D-03 -6.61849880D-02 -2.68687600D-02 -1.20036240D-04 -7.92048200D-03
 -4.47913500D-03  4.17730320D-05 -1.20798440D-04 -2.79634860D-05  7.51975690D-03
 -1.35763130D-02  6.05655590D-03 -1.19897860D-03 -6.57355950D-04 -1.37027770D-03
  1.86506690D-03 -3.05276570D-03  1.18769880D-03 -5.69031450D-04  1.04637060D-03
  3.24165720D-04 -1.77528860D-04 -7.45241230D-05  2.52052980D-04 -4.15593040D-04
 -3.30924010D-05  1.46569510D-05  5.19821670D-05 -6.53267260D-04  9.35917330D-04
  1.56792720D-03 -1.37075060D-03 -1.95962980D-03 -1.72387370D-03  3.33055240D-03
 -8.48122230D-04 -1.67045860D-03  1.70584510D-05 -1.11003040D-04 -8.77070830D-05
 -4.60055760D-05  1.46765890D-04  2.06810070D-04 -5.16977780D-06  1.86243240D-04
  5.63111850D-05  5.01444990D-04  1.89907080D-03  3.42505240D-03  5.05023770D-03
  2.95719800D-03  5.51578470D-04 -3.18020690D-05 -1.58224530D-03 -3.74887280D-03
 -1.76858030D-03  2.62661460D-04 -1.56467570D-03 -5.89362020D-04  2.93508150D-05
 -1.54555950D-04 -9.66356810D-05  4.73231360D-04 -1.79785650D-04 -2.93445700D-04
  2.03424010D-03  1.07486570D-03 -3.77400500D-04 -3.64433880D-05 -4.19104080D-06
  4.06344290D-05  2.58096270D-04  1.58473020D-04  2.44128090D-05 -8.77648980D-03
 -1.58287610D-02 -2.33394990D-02 -1.68154730D-02 -2.23410040D-03  7.31141810D-05
 -1.71367520D-03  5.42595310D-03 -1.19686940D-03 -9.09811590D-04  2.73033880D-03
 -7.41993810D-04 -1.46954070D-04 -2.73415200D-05 -1.06192130D-04  7.57082210D-04
 -1.92412400D-03  1.16704180D-03  1.39890330D-03 -3.98760080D-04  9.05157980D-04
  1.23839290D-04 -1.75374930D-04  5.15356390D-05  2.31411000D-04  1.81906440D-04
  1.90054240D-04 -6.21272980D-04 -1.15795070D-03 -1.96346810D-03 -2.97150020D-03
 -3.70671230D-03 -3.18091060D-03 -1.21811980D-03 -1.12565370D-05 -1.20775250D-04
 -4.45200310D-04 -1.30173960D-03 -1.56865950D-03  1.88961660D-03  9.66792100D-04
  2.18836450D-03  7.43095930D-04  6.92485240D-01  6.71477750D-01  4.52974920D-01
  1.10099470D+00  1.06759450D+00  7.20192970D-01  5.39500170D-01  5.23133690D-01