 Entering Gaussian System, Link 0=/opt/software/RI/non-eb/apps/binapps/gaussian/g16c01_em64t_haswell/g16/g16
 Input=/gpfs01/scratch/mbdxwym4/WD_FSv2_small/WD_FSv2_small_PARENT/WD_FSv2_small0/WD_FSv2_small00000/WD_FSv2_small00000.gjf
 Output=/gpfs01/scratch/mbdxwym4/WD_FSv2_small/WD_FSv2_small_PARENT/WD_FSv2_small0/WD_FSv2_small00000/WD_FSv2_small00000.gau
 Initial command:
 /opt/software/RI/non-eb/apps/binapps/gaussian/g16c01_em64t_haswell/g16/l1.exe "/gpfs01/scratch/mbdxwym4/WD_FSv2_small/WD_FSv2_small_PARENT/WD_FSv2_small0/WD_FSv2_small00000/Gau-202026.inp" -scrdir="/gpfs01/scratch/mbdxwym4/WD_FSv2_small/WD_FSv2_small_PARENT/WD_FSv2_small0/WD_FSv2_small00000/"
 Entering Link 1 = /opt/software/RI/non-eb/apps/binapps/gaussian/g16c01_em64t_haswell/g16/l1.exe PID=    202031.

 Copyright (c) 1988-2019, Gaussian, Inc.  All Rights Reserved.

 This is part of the Gaussian(R) 16 program.  It is based on
 the Gaussian(R) 09 system (copyright 2009, Gaussian, Inc.),
 the Gaussian(R) 03 system (copyright 2003, Gaussian, Inc.),
 the Gaussian(R) 98 system (copyright 1998, Gaussian, Inc.),
 the Gaussian(R) 94 system (copyright 1995, Gaussian, Inc.),
 the Gaussian 92(TM) system (copyright 1992, Gaussian, Inc.),
 the Gaussian 90(TM) system (copyright 1990, Gaussian, Inc.),
 the Gaussian 88(TM) system (copyright 1988, Gaussian, Inc.),
 the Gaussian 86(TM) system (copyright 1986, Carnegie Mellon
 University), and the Gaussian 82(TM) system (copyright 1983,
 Carnegie Mellon University). Gaussian is a federally registered
 trademark of Gaussian, Inc.

 This software contains proprietary and confidential information,
 including trade secrets, belonging to Gaussian, Inc.

 This software is provided under written license and may be
 used, copied, transmitted, or stored only in accord with that
 written license.

 The following legend is applicable only to US Government
 contracts under FAR:

                    RESTRICTED RIGHTS LEGEND

 Use, reproduction and disclosure by the US Government is
 subject to restrictions as set forth in subparagraphs (a)
 and (c) of the Commercial Computer Software - Restricted
 Rights clause in FAR 52.227-19.

 Gaussian, Inc.
 340 Quinnipiac St., Bldg. 40, Wallingford CT 06492


 ---------------------------------------------------------------
 Warning -- This program may not be used in any manner that
 competes with the business of Gaussian, Inc. or will provide
 assistance to any competitor of Gaussian, Inc.  The licensee
 of this program is prohibited from giving any competitor of
 Gaussian, Inc. access to this program.  By using this program,
 the user acknowledges that Gaussian, Inc. is engaged in the
 business of creating and licensing software in the field of
 computational chemistry and represents and warrants to the
 licensee that it is not a competitor of Gaussian, Inc. and that
 it will not use this program in any manner prohibited above.
 ---------------------------------------------------------------


 Cite this work as:
 Gaussian 16, Revision C.01,
 M. J. Frisch, G. W. Trucks, H. B. Schlegel, G. E. Scuseria,
 M. A. Robb, J. R. Cheeseman, G. Scalmani, V. Barone,
 G. A. Petersson, H. Nakatsuji, X. Li, M. Caricato, A. V. Marenich,
 J. Bloino, B. G. Janesko, R. Gomperts, B. Mennucci, H. P. Hratchian,
 J. V. Ortiz, A. F. Izmaylov, J. L. Sonnenberg, D. Williams-Young,
 F. Ding, F. Lipparini, F. Egidi, J. Goings, B. Peng, A. Petrone,
 T. Henderson, D. Ranasinghe, V. G. Zakrzewski, J. Gao, N. Rega,
 G. Zheng, W. Liang, M. Hada, M. Ehara, K. Toyota, R. Fukuda,
 J. Hasegawa, M. Ishida, T. Nakajima, Y. Honda, O. Kitao, H. Nakai,
 T. Vreven, K. Throssell, J. A. Montgomery, Jr., J. E. Peralta,
 F. Ogliaro, M. J. Bearpark, J. J. Heyd, E. N. Brothers, K. N. Kudin,
 V. N. Staroverov, T. A. Keith, R. Kobayashi, J. Normand,
 K. Raghavachari, A. P. Rendell, J. C. Burant, S. S. Iyengar,
 J. Tomasi, M. Cossi, J. M. Millam, M. Klene, C. Adamo, R. Cammi,
 J. W. Ochterski, R. L. Martin, K. Morokuma, O. Farkas,
 J. B. Foresman, and D. J. Fox, Gaussian, Inc., Wallingford CT, 2019.

 ******************************************
 Gaussian 16:  ES64L-G16RevC.01  3-Jul-2019
                 5-Dec-2023
 ******************************************
 --------------------------------------------------------
 #p b3lyp/aug-cc-pvtz nosymm output=wfn force geom=notest
 --------------------------------------------------------
 1/10=7,30=1,38=1/1,3;
 2/12=3,15=1,17=6,18=5,40=1/2;
 3/5=16,6=1,7=10,11=2,25=1,30=1,71=1,74=-5/1,2,3;
 4//1;
 5/5=2,38=5/2;
 6/7=2,8=2,9=2,10=2,28=1/1;
 7/29=1,30=1/1,2,3,16;
 1/10=7,30=1/3;
 99/6=100/99;
 Leave Link    1 at Tue Dec  5 12:01:09 2023, MaxMem=           0 cpu:               0.1 elap:               0.2
 (Enter /opt/software/RI/non-eb/apps/binapps/gaussian/g16c01_em64t_haswell/g16/l101.exe)
 ------------------
 WD_FSv2_small00000
 ------------------
 Symbolic Z-matrix:
 Charge =  0 Multiplicity = 1
 O                     0.        0.        0.
 H                     0.97095   0.        0.
 H                    -0.21803   1.02625   0.
 O                    -1.82648  -1.39589  -1.60444
 H                    -1.89311  -1.96791  -2.43972
 H                    -1.10323  -0.71234  -1.83473

 ITRead=  0  0  0  0  0  0
 MicOpt= -1 -1 -1 -1 -1 -1
 NAtoms=      6 NQM=        6 NQMF=       0 NMMI=      0 NMMIF=      0
                NMic=       0 NMicF=      0.
                    Isotopes and Nuclear Properties:
 (Nuclear quadrupole moments (NQMom) in fm**2, nuclear magnetic moments (NMagM)
  in nuclear magnetons)

  Atom         1           2           3           4           5           6
 IAtWgt=          16           1           1          16           1           1
 AtmWgt=  15.9949146   1.0078250   1.0078250  15.9949146   1.0078250   1.0078250
 NucSpn=           0           1           1           0           1           1
 AtZEff=  -0.0000000  -0.0000000  -0.0000000  -0.0000000  -0.0000000  -0.0000000
 NQMom=    0.0000000   0.0000000   0.0000000   0.0000000   0.0000000   0.0000000
 NMagM=    0.0000000   2.7928460   2.7928460   0.0000000   2.7928460   2.7928460
 AtZNuc=   8.0000000   1.0000000   1.0000000   8.0000000   1.0000000   1.0000000
 Leave Link  101 at Tue Dec  5 12:01:09 2023, MaxMem=   104857600 cpu:               0.1 elap:               0.1
 (Enter /opt/software/RI/non-eb/apps/binapps/gaussian/g16c01_em64t_haswell/g16/l103.exe)

 GradGradGradGradGradGradGradGradGradGradGradGradGradGradGradGradGradGrad
 Berny optimization.
 Initialization pass.
 Trust Radius=3.00D-01 FncErr=1.00D-07 GrdErr=1.00D-07 EigMax=2.50D+02 EigMin=1.00D-04
 Number of steps in this run=      2 maximum allowed number of steps=      2.
 GradGradGradGradGradGradGradGradGradGradGradGradGradGradGradGradGradGrad

 Leave Link  103 at Tue Dec  5 12:01:09 2023, MaxMem=   104857600 cpu:               0.0 elap:               0.0
 (Enter /opt/software/RI/non-eb/apps/binapps/gaussian/g16c01_em64t_haswell/g16/l202.exe)
                          Input orientation:
 ---------------------------------------------------------------------
 Center     Atomic      Atomic             Coordinates (Angstroms)
 Number     Number       Type             X           Y           Z
 ---------------------------------------------------------------------
      1          8           0        0.000000    0.000000    0.000000
      2          1           0        0.970947    0.000000    0.000000
      3          1           0       -0.218031    1.026252    0.000000
      4          8           0       -1.826483   -1.395889   -1.604441
      5          1           0       -1.893108   -1.967914   -2.439719
      6          1           0       -1.103226   -0.712339   -1.834729
 ---------------------------------------------------------------------
                    Distance matrix (angstroms):
                    1          2          3          4          5
     1  O    0.000000
     2  H    0.970947   0.000000
     3  H    1.049157   1.570625   0.000000
     4  O    2.803351   3.514023   3.320861   0.000000
     5  H    3.661799   4.245907   4.209886   1.014565   0.000000
     6  H    2.256272   2.859345   2.678152   1.021458   1.601998
                    6
     6  H    0.000000
 Symmetry turned off by external request.
 Stoichiometry    H4O2
 Framework group  C1[X(H4O2)]
 Deg. of freedom    12
 Full point group                 C1      NOp   1
 Rotational constants (GHZ):         214.1953077           6.6032759           6.5574934
 Leave Link  202 at Tue Dec  5 12:01:09 2023, MaxMem=   104857600 cpu:               0.0 elap:               0.0
 (Enter /opt/software/RI/non-eb/apps/binapps/gaussian/g16c01_em64t_haswell/g16/l301.exe)
 Standard basis: Aug-CC-pVTZ (5D, 7F)
 Ernie: Thresh=  0.10000D-02 Tol=  0.10000D-05 Strict=F.
 Ernie:  6 primitive shells out of 104 were deleted.
   184 basis functions,   252 primitive gaussians,   210 cartesian basis functions
    10 alpha electrons       10 beta electrons
       nuclear repulsion energy        35.6054500657 Hartrees.
 IExCor=  402 DFT=T Ex+Corr=B3LYP ExCW=0 ScaHFX=  0.200000
 ScaDFX=  0.800000  0.720000  1.000000  0.810000 ScalE2=  1.000000  1.000000
 IRadAn=      5 IRanWt=     -1 IRanGd=            0 ICorTp=0 IEmpDi=  4
 NAtoms=    6 NActive=    6 NUniq=    6 SFac= 1.00D+00 NAtFMM=   60 NAOKFM=F Big=F
 Integral buffers will be    131072 words long.
 Raffenetti 2 integral format.
 Two-electron integral symmetry is turned off.
 Leave Link  301 at Tue Dec  5 12:01:09 2023, MaxMem=   104857600 cpu:               0.1 elap:               0.1
 (Enter /opt/software/RI/non-eb/apps/binapps/gaussian/g16c01_em64t_haswell/g16/l302.exe)
 NPDir=0 NMtPBC=     1 NCelOv=     1 NCel=       1 NClECP=     1 NCelD=      1
         NCelK=      1 NCelE2=     1 NClLst=     1 CellRange=     0.0.
 One-electron integrals computed using PRISM.
 NBasis=   184 RedAO= T EigKep=  2.55D-04  NBF=   184
 NBsUse=   184 1.00D-06 EigRej= -1.00D+00 NBFU=   184
 Precomputing XC quadrature grid using
 IXCGrd= 4 IRadAn=           5 IRanWt=          -1 IRanGd=           0 AccXCQ= 0.00D+00.
 Generated NRdTot=       0 NPtTot=           0 NUsed=           0 NTot=          32
 NSgBfM=   210   210   210   210   210 MxSgAt=     6 MxSgA2=     6.
 Leave Link  302 at Tue Dec  5 12:01:10 2023, MaxMem=   104857600 cpu:               0.2 elap:               0.2
 (Enter /opt/software/RI/non-eb/apps/binapps/gaussian/g16c01_em64t_haswell/g16/l303.exe)
 DipDrv:  MaxL=1.
 Leave Link  303 at Tue Dec  5 12:01:10 2023, MaxMem=   104857600 cpu:               0.1 elap:               0.0
 (Enter /opt/software/RI/non-eb/apps/binapps/gaussian/g16c01_em64t_haswell/g16/l401.exe)
 ExpMin= 2.53D-02 ExpMax= 1.53D+04 ExpMxC= 5.22D+02 IAcc=3 IRadAn=         5 AccDes= 0.00D+00
 Harris functional with IExCor=  402 and IRadAn=       5 diagonalized for initial guess.
 HarFok:  IExCor=  402 AccDes= 0.00D+00 IRadAn=         5 IDoV= 1 UseB2=F ITyADJ=14
 ICtDFT=  3500011 ScaDFX=  1.000000  1.000000  1.000000  1.000000
 FoFCou: FMM=F IPFlag=           0 FMFlag=      100000 FMFlg1=           0
         NFxFlg=           0 DoJE=T BraDBF=F KetDBF=T FulRan=T
         wScrn=  0.000000 ICntrl=       500 IOpCl=  0 I1Cent=   200000004 NGrid=           0
         NMat0=    1 NMatS0=      1 NMatT0=    0 NMatD0=    1 NMtDS0=    0 NMtDT0=    0
 Symmetry not used in FoFCou.
 Harris En= -152.978154486439
 JPrj=0 DoOrth=F DoCkMO=F.
 Leave Link  401 at Tue Dec  5 12:01:11 2023, MaxMem=   104857600 cpu:               1.6 elap:               1.6
 (Enter /opt/software/RI/non-eb/apps/binapps/gaussian/g16c01_em64t_haswell/g16/l502.exe)
 Two-electron integral symmetry not used.
 Closed shell SCF:
 Using DIIS extrapolation, IDIIS=  1040.
 NGot=   104857600 LenX=   104766624 LenY=   104722083
 Requested convergence on RMS density matrix=1.00D-08 within 128 cycles.
 Requested convergence on MAX density matrix=1.00D-06.
 Requested convergence on             energy=1.00D-06.
 No special actions if energy rises.
 Fock matrices will be formed incrementally for  20 cycles.

 Cycle   1  Pass 1  IDiag  1:
 FoFJK:  IHMeth= 1 ICntrl=       0 DoSepK=F KAlg= 0 I1Cent=           0 FoldK=F
 IRaf= 990000000 NMat=       1 IRICut=       1 DoRegI=T DoRafI=F ISym2E= 0 IDoP0=0 IntGTp=1.
 FoFCou: FMM=F IPFlag=           0 FMFlag=      100000 FMFlg1=           0
         NFxFlg=           0 DoJE=F BraDBF=F KetDBF=F FulRan=T
         wScrn=  0.000000 ICntrl=         0 IOpCl=  0 I1Cent=           0 NGrid=           0
         NMat0=    1 NMatS0=      1 NMatT0=    0 NMatD0=    1 NMtDS0=    0 NMtDT0=    0
 Symmetry not used in FoFCou.
 E= -152.761777966273
 DIIS: error= 3.86D-02 at cycle   1 NSaved=   1.
 NSaved= 1 IEnMin= 1 EnMin= -152.761777966273     IErMin= 1 ErrMin= 3.86D-02
 ErrMax= 3.86D-02  0.00D+00 EMaxC= 1.00D-01 BMatC= 2.28D-01 BMatP= 2.28D-01
 IDIUse=3 WtCom= 6.14D-01 WtEn= 3.86D-01
 Coeff-Com:  0.100D+01
 Coeff-En:   0.100D+01
 Coeff:      0.100D+01
 Gap=     0.097 Goal=   None    Shift=    0.000
 GapD=    0.097 DampG=0.500 DampE=0.500 DampFc=0.2500 IDamp=-1.
 Damping current iteration by 2.50D-01
 RMSDP=2.97D-03 MaxDP=7.18D-02              OVMax= 2.62D-01

 Cycle   2  Pass 1  IDiag  1:
 RMSU=  7.22D-04    CP:  9.84D-01
 E= -152.818185192309     Delta-E=       -0.056407226036 Rises=F Damp=T
 DIIS: error= 1.09D-02 at cycle   2 NSaved=   2.
 NSaved= 2 IEnMin= 2 EnMin= -152.818185192309     IErMin= 2 ErrMin= 1.09D-02
 ErrMax= 1.09D-02  0.00D+00 EMaxC= 1.00D-01 BMatC= 2.05D-02 BMatP= 2.28D-01
 IDIUse=3 WtCom= 8.91D-01 WtEn= 1.09D-01
 Coeff-Com: -0.387D+00 0.139D+01
 Coeff-En:   0.000D+00 0.100D+01
 Coeff:     -0.345D+00 0.135D+01
 Gap=     0.245 Goal=   None    Shift=    0.000
 RMSDP=3.90D-04 MaxDP=1.02D-02 DE=-5.64D-02 OVMax= 1.86D-01

 Cycle   3  Pass 1  IDiag  1:
 RMSU=  3.54D-04    CP:  9.81D-01  1.22D+00
 E= -152.920658900565     Delta-E=       -0.102473708257 Rises=F Damp=F
 DIIS: error= 7.53D-04 at cycle   3 NSaved=   3.
 NSaved= 3 IEnMin= 3 EnMin= -152.920658900565     IErMin= 3 ErrMin= 7.53D-04
 ErrMax= 7.53D-04  0.00D+00 EMaxC= 1.00D-01 BMatC= 9.93D-05 BMatP= 2.05D-02
 IDIUse=3 WtCom= 9.92D-01 WtEn= 7.53D-03
 Coeff-Com: -0.153D-01 0.530D-01 0.962D+00
 Coeff-En:   0.000D+00 0.000D+00 0.100D+01
 Coeff:     -0.152D-01 0.526D-01 0.963D+00
 Gap=     0.256 Goal=   None    Shift=    0.000
 RMSDP=7.88D-05 MaxDP=2.26D-03 DE=-1.02D-01 OVMax= 4.61D-03

 Cycle   4  Pass 1  IDiag  1:
 RMSU=  6.38D-05    CP:  9.80D-01  1.26D+00  1.10D+00
 E= -152.920669834260     Delta-E=       -0.000010933695 Rises=F Damp=F
 DIIS: error= 6.77D-04 at cycle   4 NSaved=   4.
 NSaved= 4 IEnMin= 4 EnMin= -152.920669834260     IErMin= 4 ErrMin= 6.77D-04
 ErrMax= 6.77D-04  0.00D+00 EMaxC= 1.00D-01 BMatC= 1.12D-04 BMatP= 9.93D-05
 IDIUse=3 WtCom= 2.78D-01 WtEn= 7.22D-01
 Coeff-Com:  0.750D-02-0.122D-01 0.496D+00 0.509D+00
 Coeff-En:   0.000D+00 0.000D+00 0.460D+00 0.540D+00
 Coeff:      0.208D-02-0.338D-02 0.470D+00 0.531D+00
 Gap=     0.260 Goal=   None    Shift=    0.000
 RMSDP=3.21D-05 MaxDP=9.27D-04 DE=-1.09D-05 OVMax= 3.13D-03

 Cycle   5  Pass 1  IDiag  1:
 RMSU=  2.73D-05    CP:  9.80D-01  1.25D+00  1.10D+00  7.76D-01
 E= -152.920733642054     Delta-E=       -0.000063807793 Rises=F Damp=F
 DIIS: error= 3.35D-04 at cycle   5 NSaved=   5.
 NSaved= 5 IEnMin= 5 EnMin= -152.920733642054     IErMin= 5 ErrMin= 3.35D-04
 ErrMax= 3.35D-04  0.00D+00 EMaxC= 1.00D-01 BMatC= 1.82D-05 BMatP= 9.93D-05
 IDIUse=3 WtCom= 9.97D-01 WtEn= 3.35D-03
 Coeff-Com:  0.523D-02-0.108D-01 0.103D+00 0.315D+00 0.588D+00
 Coeff-En:   0.000D+00 0.000D+00 0.000D+00 0.141D+00 0.859D+00
 Coeff:      0.521D-02-0.108D-01 0.102D+00 0.314D+00 0.589D+00
 Gap=     0.259 Goal=   None    Shift=    0.000
 RMSDP=1.03D-05 MaxDP=3.27D-04 DE=-6.38D-05 OVMax= 8.55D-04

 Cycle   6  Pass 1  IDiag  1:
 RMSU=  4.41D-06    CP:  9.80D-01  1.25D+00  1.11D+00  8.34D-01  6.90D-01
 E= -152.920745510154     Delta-E=       -0.000011868100 Rises=F Damp=F
 DIIS: error= 3.67D-05 at cycle   6 NSaved=   6.
 NSaved= 6 IEnMin= 6 EnMin= -152.920745510154     IErMin= 6 ErrMin= 3.67D-05
 ErrMax= 3.67D-05  0.00D+00 EMaxC= 1.00D-01 BMatC= 3.05D-07 BMatP= 1.82D-05
 IDIUse=1 WtCom= 1.00D+00 WtEn= 0.00D+00
 Coeff-Com:  0.181D-02-0.248D-02 0.149D-01 0.569D-01 0.141D+00 0.788D+00
 Coeff:      0.181D-02-0.248D-02 0.149D-01 0.569D-01 0.141D+00 0.788D+00
 Gap=     0.259 Goal=   None    Shift=    0.000
 RMSDP=1.52D-06 MaxDP=4.52D-05 DE=-1.19D-05 OVMax= 1.44D-04

 Cycle   7  Pass 1  IDiag  1:
 RMSU=  6.12D-07    CP:  9.80D-01  1.25D+00  1.11D+00  8.34D-01  7.06D-01
                    CP:  8.88D-01
 E= -152.920745753306     Delta-E=       -0.000000243152 Rises=F Damp=F
 DIIS: error= 3.37D-06 at cycle   7 NSaved=   7.
 NSaved= 7 IEnMin= 7 EnMin= -152.920745753306     IErMin= 7 ErrMin= 3.37D-06
 ErrMax= 3.37D-06  0.00D+00 EMaxC= 1.00D-01 BMatC= 1.71D-09 BMatP= 3.05D-07
 IDIUse=1 WtCom= 1.00D+00 WtEn= 0.00D+00
 Coeff-Com:  0.169D-03-0.236D-03 0.131D-02 0.374D-03 0.320D-02 0.100D+00
 Coeff-Com:  0.895D+00
 Coeff:      0.169D-03-0.236D-03 0.131D-02 0.374D-03 0.320D-02 0.100D+00
 Coeff:      0.895D+00
 Gap=     0.259 Goal=   None    Shift=    0.000
 RMSDP=1.79D-07 MaxDP=5.22D-06 DE=-2.43D-07 OVMax= 1.44D-05

 Cycle   8  Pass 1  IDiag  1:
 RMSU=  1.21D-07    CP:  9.80D-01  1.25D+00  1.11D+00  8.34D-01  7.06D-01
                    CP:  9.14D-01  9.26D-01
 E= -152.920745754790     Delta-E=       -0.000000001484 Rises=F Damp=F
 DIIS: error= 9.62D-07 at cycle   8 NSaved=   8.
 NSaved= 8 IEnMin= 8 EnMin= -152.920745754790     IErMin= 8 ErrMin= 9.62D-07
 ErrMax= 9.62D-07  0.00D+00 EMaxC= 1.00D-01 BMatC= 1.37D-10 BMatP= 1.71D-09
 IDIUse=1 WtCom= 1.00D+00 WtEn= 0.00D+00
 Coeff-Com: -0.829D-05-0.115D-04-0.995D-04-0.186D-02-0.412D-02 0.129D-02
 Coeff-Com:  0.259D+00 0.746D+00
 Coeff:     -0.829D-05-0.115D-04-0.995D-04-0.186D-02-0.412D-02 0.129D-02
 Coeff:      0.259D+00 0.746D+00
 Gap=     0.259 Goal=   None    Shift=    0.000
 RMSDP=3.91D-08 MaxDP=1.12D-06 DE=-1.48D-09 OVMax= 3.23D-06

 Cycle   9  Pass 1  IDiag  1:
 RMSU=  2.51D-08    CP:  9.80D-01  1.25D+00  1.11D+00  8.34D-01  7.06D-01
                    CP:  9.16D-01  9.67D-01  8.95D-01
 E= -152.920745754900     Delta-E=       -0.000000000110 Rises=F Damp=F
 DIIS: error= 5.93D-08 at cycle   9 NSaved=   9.
 NSaved= 9 IEnMin= 9 EnMin= -152.920745754900     IErMin= 9 ErrMin= 5.93D-08
 ErrMax= 5.93D-08  0.00D+00 EMaxC= 1.00D-01 BMatC= 6.59D-13 BMatP= 1.37D-10
 IDIUse=1 WtCom= 1.00D+00 WtEn= 0.00D+00
 Coeff-Com: -0.523D-05 0.743D-05-0.405D-04-0.534D-04-0.221D-03-0.302D-02
 Coeff-Com: -0.151D-01 0.242D-01 0.994D+00
 Coeff:     -0.523D-05 0.743D-05-0.405D-04-0.534D-04-0.221D-03-0.302D-02
 Coeff:     -0.151D-01 0.242D-01 0.994D+00
 Gap=     0.259 Goal=   None    Shift=    0.000
 RMSDP=4.73D-09 MaxDP=1.43D-07 DE=-1.10D-10 OVMax= 5.23D-07

 SCF Done:  E(RB3LYP) =  -152.920745755     A.U. after    9 cycles
            NFock=  9  Conv=0.47D-08     -V/T= 2.0079
 KE= 1.517146794028D+02 PE=-4.325888223697D+02 EE= 9.234794714622D+01
 Leave Link  502 at Tue Dec  5 12:01:56 2023, MaxMem=   104857600 cpu:              45.1 elap:              45.2
 (Enter /opt/software/RI/non-eb/apps/binapps/gaussian/g16c01_em64t_haswell/g16/l601.exe)
 Copying SCF densities to generalized density rwf, IOpCl= 0 IROHF=0.

 **********************************************************************

            Population analysis using the SCF Density.

 **********************************************************************

 Alpha  occ. eigenvalues --  -19.15583 -19.12512  -1.01277  -0.97543  -0.52525
 Alpha  occ. eigenvalues --   -0.49578  -0.40532  -0.37440  -0.32997  -0.29652
 Alpha virt. eigenvalues --   -0.03739  -0.00589   0.01482   0.03272   0.07147
 Alpha virt. eigenvalues --    0.08638   0.09107   0.09653   0.11163   0.12022
 Alpha virt. eigenvalues --    0.12344   0.14469   0.15908   0.17172   0.19062
 Alpha virt. eigenvalues --    0.19880   0.22700   0.23658   0.26338   0.27617
 Alpha virt. eigenvalues --    0.28980   0.31096   0.32081   0.32425   0.34027
 Alpha virt. eigenvalues --    0.34833   0.35325   0.39986   0.47683   0.50124
 Alpha virt. eigenvalues --    0.52478   0.55357   0.57347   0.59250   0.60844
 Alpha virt. eigenvalues --    0.62393   0.62979   0.64388   0.66143   0.70300
 Alpha virt. eigenvalues --    0.71387   0.72367   0.74571   0.77959   0.78615
 Alpha virt. eigenvalues --    0.80006   0.80891   0.81633   0.83174   0.83873
 Alpha virt. eigenvalues --    0.84795   0.88063   0.90205   0.91708   0.92211
 Alpha virt. eigenvalues --    0.93207   0.94934   0.98171   1.01271   1.02184
 Alpha virt. eigenvalues --    1.04909   1.07973   1.09508   1.10821   1.13737
 Alpha virt. eigenvalues --    1.23339   1.24811   1.29507   1.34718   1.35495
 Alpha virt. eigenvalues --    1.42205   1.44871   1.47122   1.55007   1.59708
 Alpha virt. eigenvalues --    1.61950   1.65297   1.66870   1.71007   1.78783
 Alpha virt. eigenvalues --    1.84635   1.90616   2.01816   2.03388   2.04884
 Alpha virt. eigenvalues --    2.09202   2.10071   2.13682   2.14787   2.20239
 Alpha virt. eigenvalues --    2.21551   2.23474   2.26190   2.27028   2.35450
 Alpha virt. eigenvalues --    2.42372   2.44094   2.44818   2.47267   2.50972
 Alpha virt. eigenvalues --    2.53747   2.56170   2.60611   2.61553   2.66725
 Alpha virt. eigenvalues --    2.74374   3.27804   3.30363   3.37969   3.43515
 Alpha virt. eigenvalues --    3.66694   3.69784   3.75150   3.81183   3.84583
 Alpha virt. eigenvalues --    3.88487   3.90479   3.93859   3.99176   4.03397
 Alpha virt. eigenvalues --    4.05839   4.09323   4.10284   4.12007   4.14954
 Alpha virt. eigenvalues --    4.17040   4.21730   4.26459   4.29540   4.32663
 Alpha virt. eigenvalues --    4.40059   4.45949   4.66674   4.68959   4.71318
 Alpha virt. eigenvalues --    4.74580   4.80267   4.81713   4.87299   4.89085
 Alpha virt. eigenvalues --    4.98293   5.07647   5.23009   5.28157   5.73382
 Alpha virt. eigenvalues --    5.79767   6.07654   6.12622   6.24833   6.32088
 Alpha virt. eigenvalues --    6.37676   6.43858   6.58309   6.62510   6.71100
 Alpha virt. eigenvalues --    6.73326   6.73980   6.74922   6.77144   6.81257
 Alpha virt. eigenvalues --    6.82741   6.83721   6.88244   6.90815   6.95549
 Alpha virt. eigenvalues --    7.05671   7.28477   7.34452   7.35603   7.39434
 Alpha virt. eigenvalues --    8.00816   8.05098  13.53092  13.83659
          Condensed to atoms (all electrons):
               1          2          3          4          5          6
     1  O    7.990326   0.230898   0.227198  -0.029903   0.004905  -0.001343
     2  H    0.230898   0.569883   0.027332   0.002610  -0.000166  -0.003050
     3  H    0.227198   0.027332   0.493079   0.001730   0.000072  -0.000960
     4  O   -0.029903   0.002610   0.001730   8.027318   0.229236   0.214295
     5  H    0.004905  -0.000166   0.000072   0.229236   0.533331   0.030868
     6  H   -0.001343  -0.003050  -0.000960   0.214295   0.030868   0.518622
 Mulliken charges:
               1
     1  O   -0.422080
     2  H    0.172492
     3  H    0.251550
     4  O   -0.445286
     5  H    0.201755
     6  H    0.241568
 Sum of Mulliken charges =  -0.00000
 Mulliken charges with hydrogens summed into heavy atoms:
               1
     1  O    0.001962
     4  O   -0.001962
 Electronic spatial extent (au):  <R**2>=            325.4632
 Charge=             -0.0000 electrons
 Dipole moment (field-independent basis, Debye):
    X=              2.3127    Y=              1.7623    Z=             -1.2825  Tot=              3.1779
 Quadrupole moment (field-independent basis, Debye-Ang):
   XX=            -15.8997   YY=            -11.7625   ZZ=             -9.4461
   XY=             -1.3315   XZ=              0.6097   YZ=              2.4860
 Traceless Quadrupole moment (field-independent basis, Debye-Ang):
   XX=             -3.5303   YY=              0.6069   ZZ=              2.9233
   XY=             -1.3315   XZ=              0.6097   YZ=              2.4860
 Octapole moment (field-independent basis, Debye-Ang**2):
  XXX=             47.4951  YYY=             26.0877  ZZZ=             19.7801  XYY=              9.3458
  XXY=             10.5155  XXZ=             13.5750  XZZ=              5.3519  YZZ=             -1.6231
  YYZ=              5.2359  XYZ=             -4.4422
 Hexadecapole moment (field-independent basis, Debye-Ang**3):
 XXXX=           -171.4370 YYYY=            -86.9018 ZZZZ=            -94.7002 XXXY=            -55.9558
 XXXZ=            -71.0805 YYYX=            -43.3920 YYYZ=            -32.3796 ZZZX=            -39.4276
 ZZZY=            -16.9244 XXYY=            -35.9278 XXZZ=            -40.5662 YYZZ=            -14.9308
 XXYZ=             -8.7996 YYXZ=             -6.3382 ZZXY=              2.2305
 N-N= 3.560545006574D+01 E-N=-4.325888255148D+02  KE= 1.517146794028D+02
 No NMR shielding tensors so no spin-rotation constants.
 Leave Link  601 at Tue Dec  5 12:01:57 2023, MaxMem=   104857600 cpu:               0.1 elap:               0.1
 (Enter /opt/software/RI/non-eb/apps/binapps/gaussian/g16c01_em64t_haswell/g16/l701.exe)
 ... and contract with generalized density number  0.
 Compute integral first derivatives.
 Leave Link  701 at Tue Dec  5 12:01:57 2023, MaxMem=   104857600 cpu:               0.1 elap:               0.1
 (Enter /opt/software/RI/non-eb/apps/binapps/gaussian/g16c01_em64t_haswell/g16/l702.exe)
 L702 exits ... SP integral derivatives will be done elsewhere.
 Leave Link  702 at Tue Dec  5 12:01:57 2023, MaxMem=   104857600 cpu:               0.0 elap:               0.0
 (Enter /opt/software/RI/non-eb/apps/binapps/gaussian/g16c01_em64t_haswell/g16/l703.exe)
 Integral derivatives from FoFJK, PRISM(SPDF).
 Compute integral first derivatives, UseDBF=F ICtDFT=           0.
 Calling FoFJK, ICntrl=      2127 FMM=F ISym2X=0 I1Cent= 0 IOpClX= 0 NMat=1 NMatS=1 NMatT=0.
 FoFJK:  IHMeth= 1 ICntrl=    2127 DoSepK=F KAlg= 0 I1Cent=           0 FoldK=F
 IRaf=         0 NMat=       1 IRICut=       1 DoRegI=T DoRafI=F ISym2E= 0 IDoP0=0 IntGTp=1.
 FoFCou: FMM=F IPFlag=           0 FMFlag=      100000 FMFlg1=         800
         NFxFlg=           0 DoJE=F BraDBF=F KetDBF=F FulRan=T
         wScrn=  0.000000 ICntrl=      2127 IOpCl=  0 I1Cent=           0 NGrid=           0
         NMat0=    1 NMatS0=      1 NMatT0=    0 NMatD0=    1 NMtDS0=    0 NMtDT0=    0
 Symmetry not used in FoFCou.
 Leave Link  703 at Tue Dec  5 12:02:18 2023, MaxMem=   104857600 cpu:              20.8 elap:              20.9
 (Enter /opt/software/RI/non-eb/apps/binapps/gaussian/g16c01_em64t_haswell/g16/l716.exe)
 Dipole        = 9.09892373D-01 6.93345597D-01-5.04584466D-01
 -------------------------------------------------------------------
 Center     Atomic                   Forces (Hartrees/Bohr)
 Number     Number              X              Y              Z
 -------------------------------------------------------------------
      1        8          -0.003062140    0.067158785   -0.002134852
      2        1          -0.005866814   -0.001593254    0.000797436
      3        1           0.011715795   -0.061933335    0.001573510
      4        8           0.026259381    0.004342471   -0.050629763
      5        1           0.002305952    0.024889073    0.034872086
      6        1          -0.031352174   -0.032863739    0.015521582
 -------------------------------------------------------------------
 Cartesian Forces:  Max     0.067158785 RMS     0.029771201
 Z-matrix is all fixed cartesians, so copy forces.
 Force constants in Cartesian coordinates:
                1             2             3             4             5
      1  0.588058D+00
      2 -0.300013D-01  0.450229D+00
      3  0.000000D+00  0.000000D+00  0.100000D+01
      4 -0.531839D+00  0.000000D+00  0.000000D+00  0.531839D+00
      5 -0.430229D-01 -0.566664D-01  0.000000D+00  0.000000D+00  0.475260D-01
      6  0.000000D+00  0.000000D+00  0.000000D+00  0.000000D+00  0.000000D+00
      7 -0.562186D-01  0.300013D-01  0.000000D+00  0.000000D+00  0.430229D-01
      8  0.730241D-01 -0.393562D+00  0.000000D+00  0.000000D+00  0.914038D-02
      9  0.000000D+00  0.000000D+00  0.000000D+00  0.000000D+00  0.000000D+00
     10  0.000000D+00  0.000000D+00  0.000000D+00  0.000000D+00  0.000000D+00
     11  0.000000D+00  0.000000D+00  0.000000D+00  0.000000D+00  0.000000D+00
     12  0.000000D+00  0.000000D+00  0.000000D+00  0.000000D+00  0.000000D+00
     13  0.000000D+00  0.000000D+00  0.000000D+00  0.000000D+00  0.000000D+00
     14  0.000000D+00  0.000000D+00  0.000000D+00  0.000000D+00  0.000000D+00
     15  0.000000D+00  0.000000D+00  0.000000D+00  0.000000D+00  0.000000D+00
     16  0.000000D+00  0.000000D+00  0.000000D+00  0.000000D+00  0.000000D+00
     17  0.000000D+00  0.000000D+00  0.000000D+00  0.000000D+00  0.000000D+00
     18  0.000000D+00  0.000000D+00  0.000000D+00  0.000000D+00  0.000000D+00
                6             7             8             9            10
      6  0.100000D+01
      7  0.000000D+00  0.562186D-01
      8  0.000000D+00 -0.730241D-01  0.384422D+00
      9  0.000000D+00  0.000000D+00  0.000000D+00  0.100000D+01
     10  0.000000D+00  0.000000D+00  0.000000D+00  0.000000D+00  0.252223D+00
     11  0.000000D+00  0.000000D+00  0.000000D+00  0.000000D+00  0.230616D+00
     12  0.000000D+00  0.000000D+00  0.000000D+00  0.000000D+00 -0.933657D-01
     13  0.000000D+00  0.000000D+00  0.000000D+00  0.000000D+00 -0.273426D-01
     14  0.000000D+00  0.000000D+00  0.000000D+00  0.000000D+00 -0.363572D-01
     15  0.000000D+00  0.000000D+00  0.000000D+00  0.000000D+00 -0.898684D-02
     16  0.000000D+00  0.000000D+00  0.000000D+00  0.000000D+00 -0.224880D+00
     17  0.000000D+00  0.000000D+00  0.000000D+00  0.000000D+00 -0.194258D+00
     18  0.000000D+00  0.000000D+00  0.000000D+00  0.000000D+00  0.102353D+00
               11            12            13            14            15
     11  0.342072D+00
     12  0.135398D+00  0.406000D+00
     13 -0.209975D-01  0.168559D-01  0.240743D-01
     14 -0.147025D+00 -0.177981D+00  0.338324D-01  0.156940D+00
     15 -0.207296D+00 -0.331624D+00  0.109766D-01  0.199482D+00  0.314680D+00
     16 -0.209618D+00  0.765098D-01  0.326830D-02  0.252477D-02 -0.198974D-02
     17 -0.195047D+00  0.425829D-01 -0.128349D-01 -0.991502D-02  0.781387D-02
     18  0.718974D-01 -0.743760D-01 -0.278325D-01 -0.215007D-01  0.169444D-01
               16            17            18
     16  0.221612D+00
     17  0.207093D+00  0.204962D+00
     18 -0.745200D-01 -0.503967D-01  0.574316D-01
 Leave Link  716 at Tue Dec  5 12:02:18 2023, MaxMem=   104857600 cpu:               0.1 elap:               0.0
 (Enter /opt/software/RI/non-eb/apps/binapps/gaussian/g16c01_em64t_haswell/g16/l103.exe)

 GradGradGradGradGradGradGradGradGradGradGradGradGradGradGradGradGradGrad
 Berny optimization.
 Search for a local minimum.
 Step number   1 out of a maximum of    2
 All quantities printed in internal units (Hartrees-Bohrs-Radians)
 Second derivative matrix not updated -- first step.
 The second derivative matrix:
                          X1        Y1        Z1        X2        Y2
           X1           0.58806
           Y1          -0.03000   0.45023
           Z1           0.00000   0.00000   1.00000
           X2          -0.53184   0.00000   0.00000   0.53184
           Y2          -0.04302  -0.05667   0.00000   0.00000   0.04753
           Z2           0.00000   0.00000   0.00000   0.00000   0.00000
           X3          -0.05622   0.03000   0.00000   0.00000   0.04302
           Y3           0.07302  -0.39356   0.00000   0.00000   0.00914
           Z3           0.00000   0.00000   0.00000   0.00000   0.00000
           X4           0.00000   0.00000   0.00000   0.00000   0.00000
           Y4           0.00000   0.00000   0.00000   0.00000   0.00000
           Z4           0.00000   0.00000   0.00000   0.00000   0.00000
           X5           0.00000   0.00000   0.00000   0.00000   0.00000
           Y5           0.00000   0.00000   0.00000   0.00000   0.00000
           Z5           0.00000   0.00000   0.00000   0.00000   0.00000
           X6           0.00000   0.00000   0.00000   0.00000   0.00000
           Y6           0.00000   0.00000   0.00000   0.00000   0.00000
           Z6           0.00000   0.00000   0.00000   0.00000   0.00000
                          Z2        X3        Y3        Z3        X4
           Z2           1.00000
           X3           0.00000   0.05622
           Y3           0.00000  -0.07302   0.38442
           Z3           0.00000   0.00000   0.00000   1.00000
           X4           0.00000   0.00000   0.00000   0.00000   0.25222
           Y4           0.00000   0.00000   0.00000   0.00000   0.23062
           Z4           0.00000   0.00000   0.00000   0.00000  -0.09337
           X5           0.00000   0.00000   0.00000   0.00000  -0.02734
           Y5           0.00000   0.00000   0.00000   0.00000  -0.03636
           Z5           0.00000   0.00000   0.00000   0.00000  -0.00899
           X6           0.00000   0.00000   0.00000   0.00000  -0.22488
           Y6           0.00000   0.00000   0.00000   0.00000  -0.19426
           Z6           0.00000   0.00000   0.00000   0.00000   0.10235
                          Y4        Z4        X5        Y5        Z5
           Y4           0.34207
           Z4           0.13540   0.40600
           X5          -0.02100   0.01686   0.02407
           Y5          -0.14703  -0.17798   0.03383   0.15694
           Z5          -0.20730  -0.33162   0.01098   0.19948   0.31468
           X6          -0.20962   0.07651   0.00327   0.00252  -0.00199
           Y6          -0.19505   0.04258  -0.01283  -0.00992   0.00781
           Z6           0.07190  -0.07438  -0.02783  -0.02150   0.01694
                          X6        Y6        Z6
           X6           0.22161
           Y6           0.20709   0.20496
           Z6          -0.07452  -0.05040   0.05743
 ITU=  0
     Eigenvalues ---   -0.00000  -0.00000  -0.00000   0.12102   0.12843
     Eigenvalues ---    0.16869   0.59142   0.69733   0.71627   0.88158
     Eigenvalues ---    0.99399   1.00930
 Eigenvalue     1 is  -5.55D-16 should be greater than     0.000000 Eigenvector:
                          X6        Y6        Y2        X3        Z6
   1                    0.47914  -0.46152   0.42550  -0.38164   0.26478
                          X4        Y3        Y4        X2        X1
   1                   -0.21610  -0.18324   0.15299   0.14379   0.14379
 Eigenvalue     2 is  -4.44D-16 should be greater than     0.000000 Eigenvector:
                          Y5        Z5        Z6        X5        Y4
   1                    0.47035  -0.44893   0.37499  -0.34832  -0.27143
                          X3        Y6        Y3        Y1        X6
   1                    0.25092  -0.23376   0.22280   0.15704   0.13984
 Eigenvalue     3 is  -1.11D-16 should be greater than     0.000000 Eigenvector:
                          X5        Z6        X4        X6        X3
   1                    0.63164   0.55196  -0.33846  -0.22613   0.17879
                          Z5        Z4        Y5        X2        X1
   1                   -0.15933  -0.13881  -0.13691   0.09743   0.09743
 Quadratic step=7.215D+01 exceeds max=3.000D-01 adjusted using Lamda=-2.863D-02.
 Angle between NR and scaled steps=  33.04 degrees.
 Angle between quadratic step and forces=  57.17 degrees.
 Linear search not attempted -- first point.
 B after Tr=    -0.014421    0.018218   -0.017435
         Rot=    0.999991    0.003020    0.002279    0.001903 Ang=   0.49 deg.
 Variable       Old X    -DE/DX   Delta X   Delta X   Delta X     New X
                                 (Linear)    (Quad)   (Total)
    X1        0.00000  -0.00306   0.00000   0.02667   0.01250   0.01250
    Y1        0.00000   0.06716   0.00000   0.06755   0.08569   0.08569
    Z1        0.00000  -0.00213   0.00000   0.00292  -0.01480  -0.01480
    X2        1.83482  -0.00587   0.00000   0.01481   0.00045   1.83528
    Y2        0.00000  -0.00159   0.00000   0.02870   0.03992   0.03992
    Z2        0.00000   0.00080   0.00000   0.00249  -0.00666  -0.00666
    X3       -0.41202   0.01172   0.00000   0.03782   0.03046  -0.38156
    Y3        1.93934  -0.06193   0.00000  -0.08629  -0.06668   1.87266
    Z3        0.00000   0.00157   0.00000   0.00425  -0.02608  -0.02608
    X4       -3.45155   0.02626   0.00000  -0.05875  -0.06923  -3.52078
    Y4       -2.63785   0.00434   0.00000  -0.02827  -0.01538  -2.65322
    Z4       -3.03195  -0.05063   0.00000  -0.05978  -0.07709  -3.10904
    X5       -3.57746   0.00231   0.00000   0.04919   0.04208  -3.53537
    Y5       -3.71882   0.02489   0.00000   0.08853   0.09213  -3.62669
    Z5       -4.61040   0.03487   0.00000  -0.03370  -0.04522  -4.65562
    X6       -2.08479  -0.03135   0.00000  -0.01110  -0.01626  -2.10105
    Y6       -1.34612  -0.03286   0.00000  -0.14205  -0.13568  -1.48181
    Z6       -3.46714   0.01552   0.00000   0.18779   0.16985  -3.29729
         Item               Value     Threshold  Converged?
 Maximum Force            0.067159     0.000450     NO
 RMS     Force            0.029771     0.000300     NO
 Maximum Displacement     0.169851     0.001800     NO
 RMS     Displacement     0.069205     0.001200     NO
 Predicted change in Energy=-1.110982D-02
 GradGradGradGradGradGradGradGradGradGradGradGradGradGradGradGradGradGrad

 Leave Link  103 at Tue Dec  5 12:02:18 2023, MaxMem=   104857600 cpu:               0.0 elap:               0.0
 (Enter /opt/software/RI/non-eb/apps/binapps/gaussian/g16c01_em64t_haswell/g16/l9999.exe)
 Unable to Open any file for archive entry.
 1\1\GINC-NODE049\Force\RB3LYP\Aug-CC-pVTZ\H4O2\MBDXWYM4\05-Dec-2023\0\
 \#p b3lyp/aug-cc-pvtz nosymm output=wfn force geom=notest\\WD_FSv2_sma
 ll00000\\0,1\O,0.,0.,0.\H,0.97094712,0.,0.\H,-0.21803131,1.02625221,0.
 \O,-1.82648327,-1.39588913,-1.60444113\H,-1.89310786,-1.96791408,-2.43
 971942\H,-1.10322566,-0.71233863,-1.83472942\\Version=ES64L-G16RevC.01
 \HF=-152.9207458\RMSD=4.728e-09\RMSF=2.977e-02\Dipole=0.9098924,0.6933
 456,-0.5045845\Quadrupole=-2.6246716,0.4512425,2.1734291,-0.9899376,0.
 4532634,1.8483137\PG=C01 [X(H4O2)]\\@
 The archive entry for this job was punched.

 Writing a WFN file to "/gpfs01/scratch/mbdxwym4/WD_FSv2_small/WD_FSv2_small_PARENT/WD_FSv2_small0/WD_FSv2_small00000/WD_FSv2_small00000.wfn"


 THE THINKER DIES, BUT HIS THOUGHTS ARE BEYOND THE
 REACH OF DESTRUCTION.  MEN ARE MORTAL; BUT IDEAS
 ARE IMMORTAL.
                              -- WALTER LIPPMANN
 Job cpu time:       0 days  0 hours  1 minutes  8.6 seconds.
 Elapsed time:       0 days  0 hours  1 minutes  8.9 seconds.
 File lengths (MBytes):  RWF=     80 Int=      0 D2E=      0 Chk=      8 Scr=      8
 Normal termination of Gaussian 16 at Tue Dec  5 12:02:18 2023.
