10k_random_sample_set_5000K05000
GAUSSIAN             16 MOL ORBITALS    156 PRIMITIVES        8 NUCLEI   B3LYP
C      1    (CENTRE  1)  -5.54256672  1.75177612  0.98643704  CHARGE = 6.0
O      2    (CENTRE  2)  -6.44396608  0.72754456  2.63427822  CHARGE = 8.0
N      3    (CENTRE  3)  -4.32369337  3.91551253  1.41162542  CHARGE = 7.0
N      4    (CENTRE  4)  -5.87515852  0.53668222 -1.51178090  CHARGE = 7.0
H      5    (CENTRE  5)  -7.14505448 -0.43085756 -1.75555557  CHARGE = 1.0
H      6    (CENTRE  6)  -5.09092218  0.81447196 -3.18040907  CHARGE = 1.0
H      7    (CENTRE  7)  -4.37660570  5.07958382  2.85159672  CHARGE = 1.0
H      8    (CENTRE  8)  -2.94986248  3.76244471 -0.35526851  CHARGE = 1.0
CENTRE ASSIGNMENTS    1  1  1  1  1  1  1  1  1  1  1  1  1  1  1  1  1  1  1  1
CENTRE ASSIGNMENTS    1  1  1  1  1  1  1  1  1  1  1  1  2  2  2  2  2  2  2  2
CENTRE ASSIGNMENTS    2  2  2  2  2  2  2  2  2  2  2  2  2  2  2  2  2  2  2  2
CENTRE ASSIGNMENTS    2  2  2  2  3  3  3  3  3  3  3  3  3  3  3  3  3  3  3  3
CENTRE ASSIGNMENTS    3  3  3  3  3  3  3  3  3  3  3  3  3  3  3  3  4  4  4  4
CENTRE ASSIGNMENTS    4  4  4  4  4  4  4  4  4  4  4  4  4  4  4  4  4  4  4  4
CENTRE ASSIGNMENTS    4  4  4  4  4  4  4  4  5  5  5  5  5  5  5  6  6  6  6  6
CENTRE ASSIGNMENTS    6  6  7  7  7  7  7  7  7  8  8  8  8  8  8  8
TYPE ASSIGNMENTS      1  1  1  1  1  1  1  1  1  2  2  2  3  3  3  4  4  4  1  2
TYPE ASSIGNMENTS      3  4  1  2  3  4  5  6  7  8  9 10  1  1  1  1  1  1  1  1
TYPE ASSIGNMENTS      1  2  2  2  3  3  3  4  4  4  1  2  3  4  1  2  3  4  5  6
TYPE ASSIGNMENTS      7  8  9 10  1  1  1  1  1  1  1  1  1  2  2  2  3  3  3  4
TYPE ASSIGNMENTS      4  4  1  2  3  4  1  2  3  4  5  6  7  8  9 10  1  1  1  1
TYPE ASSIGNMENTS      1  1  1  1  1  2  2  2  3  3  3  4  4  4  1  2  3  4  1  2
TYPE ASSIGNMENTS      3  4  5  6  7  8  9 10  1  1  1  1  2  3  4  1  1  1  1  2
TYPE ASSIGNMENTS      3  4  1  1  1  1  2  3  4  1  1  1  1  2  3  4
EXPONENTS  3.0475250D+03 4.5736950D+02 1.0394870D+02 2.9210160D+01 9.2866630D+00
EXPONENTS  3.1639270D+00 7.8682720D+00 1.8812890D+00 5.4424930D-01 7.8682720D+00
EXPONENTS  1.8812890D+00 5.4424930D-01 7.8682720D+00 1.8812890D+00 5.4424930D-01
EXPONENTS  7.8682720D+00 1.8812890D+00 5.4424930D-01 1.6871450D-01 1.6871450D-01
EXPONENTS  1.6871450D-01 1.6871450D-01 4.3800000D-02 4.3800000D-02 4.3800000D-02
EXPONENTS  4.3800000D-02 8.0000000D-01 8.0000000D-01 8.0000000D-01 8.0000000D-01
EXPONENTS  8.0000000D-01 8.0000000D-01 5.4846720D+03 8.2523490D+02 1.8804700D+02
EXPONENTS  5.2964500D+01 1.6897570D+01 5.7996350D+00 1.5539620D+01 3.5999340D+00
EXPONENTS  1.0137620D+00 1.5539620D+01 3.5999340D+00 1.0137620D+00 1.5539620D+01
EXPONENTS  3.5999340D+00 1.0137620D+00 1.5539620D+01 3.5999340D+00 1.0137620D+00
EXPONENTS  2.7000580D-01 2.7000580D-01 2.7000580D-01 2.7000580D-01 8.4500000D-02
EXPONENTS  8.4500000D-02 8.4500000D-02 8.4500000D-02 8.0000000D-01 8.0000000D-01
EXPONENTS  8.0000000D-01 8.0000000D-01 8.0000000D-01 8.0000000D-01 4.1735110D+03
EXPONENTS  6.2745790D+02 1.4290210D+02 4.0234330D+01 1.2820210D+01 4.3904370D+00
EXPONENTS  1.1626360D+01 2.7162800D+00 7.7221840D-01 1.1626360D+01 2.7162800D+00
EXPONENTS  7.7221840D-01 1.1626360D+01 2.7162800D+00 7.7221840D-01 1.1626360D+01
EXPONENTS  2.7162800D+00 7.7221840D-01 2.1203150D-01 2.1203150D-01 2.1203150D-01
EXPONENTS  2.1203150D-01 6.3900000D-02 6.3900000D-02 6.3900000D-02 6.3900000D-02
EXPONENTS  8.0000000D-01 8.0000000D-01 8.0000000D-01 8.0000000D-01 8.0000000D-01
EXPONENTS  8.0000000D-01 4.1735110D+03 6.2745790D+02 1.4290210D+02 4.0234330D+01
EXPONENTS  1.2820210D+01 4.3904370D+00 1.1626360D+01 2.7162800D+00 7.7221840D-01
EXPONENTS  1.1626360D+01 2.7162800D+00 7.7221840D-01 1.1626360D+01 2.7162800D+00
EXPONENTS  7.7221840D-01 1.1626360D+01 2.7162800D+00 7.7221840D-01 2.1203150D-01
EXPONENTS  2.1203150D-01 2.1203150D-01 2.1203150D-01 6.3900000D-02 6.3900000D-02
EXPONENTS  6.3900000D-02 6.3900000D-02 8.0000000D-01 8.0000000D-01 8.0000000D-01
EXPONENTS  8.0000000D-01 8.0000000D-01 8.0000000D-01 1.8731140D+01 2.8253940D+00
EXPONENTS  6.4012170D-01 1.6127780D-01 1.1000000D+00 1.1000000D+00 1.1000000D+00
EXPONENTS  1.8731140D+01 2.8253940D+00 6.4012170D-01 1.6127780D-01 1.1000000D+00
EXPONENTS  1.1000000D+00 1.1000000D+00 1.8731140D+01 2.8253940D+00 6.4012170D-01
EXPONENTS  1.6127780D-01 1.1000000D+00 1.1000000D+00 1.1000000D+00 1.8731140D+01
EXPONENTS  2.8253940D+00 6.4012170D-01 1.6127780D-01 1.1000000D+00 1.1000000D+00
EXPONENTS  1.1000000D+00
MO    1     MO 0.00000000 OCC NO =    2.0000000  ORB. ENERGY =  -19.116029
  1.22851060D-05  2.26636220D-05  3.65861130D-05  4.76242490D-05  4.06378580D-05
  1.40312760D-05 -9.90597960D-05 -4.56565690D-05  1.28025790D-04  9.12007150D-05
  6.99269240D-05  3.48984360D-05  1.15411300D-04  8.84900650D-05  4.41627440D-05
 -1.99508210D-04 -1.52970240D-04 -7.63428700D-05 -2.36197340D-04  1.10492560D-04
  1.25735130D-04 -2.06141550D-04  1.31222510D-04 -2.18306460D-05 -2.39685380D-05
  3.58550730D-05 -2.83217320D-04 -2.71522420D-04 -6.30604770D-04 -3.84883030D-04
  7.60724030D-04  9.46313920D-04  8.25499780D-01  1.51936030D+00  2.45861170D+00
  3.23191390D+00  2.77199380D+00  9.47791750D-01 -1.57943830D-02 -7.04742280D-03
  2.08111340D-02  2.02101260D-03  1.55708130D-03  6.83642550D-04  2.51415380D-03
  1.93701990D-03  8.50456080D-04 -4.03251110D-03 -3.10683240D-03 -1.36406680D-03
  4.38981520D-03  4.39220520D-05  3.90584800D-05 -6.77009280D-05 -5.97021240D-04
  4.90181660D-06  8.53821380D-06 -8.24271250D-06 -9.66060250D-03 -9.63115570D-03
 -9.39971330D-03  2.37242840D-04 -3.98102660D-04 -4.53167180D-04 -1.98231520D-06
 -3.65059910D-06 -5.89837360D-06 -7.71970310D-06 -6.61261760D-06 -2.27481710D-06
  1.44334570D-06  7.13519160D-07 -1.88221780D-06  8.23295590D-05  6.40948770D-05
  3.04345150D-05  1.69240140D-04  1.31756150D-04  6.25624800D-05 -6.88387730D-05
 -5.35920840D-05 -2.54474170D-05 -2.07047710D-06  4.78025470D-06  3.57403400D-06
  4.31496540D-05  2.58159910D-05  5.47743780D-06 -1.15725410D-06 -1.73797690D-05
 -8.01589470D-05 -5.18000870D-05  5.14741750D-05 -1.16751710D-04  1.09006970D-04
  3.43968110D-04 -5.96797720D-07 -1.09905290D-06 -1.77577000D-06 -2.32410120D-06
 -1.99080100D-06 -6.84858600D-07 -4.41302030D-05 -2.18158030D-05  5.75486900D-05
 -4.58871070D-05 -3.57238450D-05 -1.69629450D-05 -2.33668210D-05 -1.81914430D-05
 -8.63794080D-06 -6.44328260D-05 -5.01619840D-05 -2.38186840D-05 -4.45628730D-05
 -4.17418900D-05 -5.59657660D-05  2.56147600D-05 -3.15654300D-06  9.65800420D-06
  1.05133210D-05 -5.06535350D-06  1.32553120D-05  4.81944770D-05 -2.98137310D-04
  3.22549180D-05  2.19851970D-04  7.40875660D-05 -1.66812360D-05 -2.82945340D-05
 -3.22123260D-05  1.78279890D-05 -6.00133920D-05  1.66886360D-06  6.07054100D-05
  4.14054660D-05  7.02315070D-05  7.99560890D-05  1.04887580D-05 -9.34389310D-05
 -2.46019030D-05  1.37376630D-04 -2.36728600D-05 -4.01536510D-05 -4.57135130D-05
  1.42391680D-05 -6.62106580D-05  1.70420990D-05  9.78206050D-05 -6.10515220D-06
 -1.03554940D-05 -1.17893640D-05 -4.03960320D-05  6.86550520D-05  9.62397210D-05
  2.35439030D-05
MO    2     MO 0.00000000 OCC NO =    2.0000000  ORB. ENERGY =  -14.374957
  1.47979070D-05  2.72992480D-05  4.40694510D-05  5.73653310D-05  4.89499410D-05
  1.69012380D-05 -7.12282120D-05 -3.28290180D-05  9.20559930D-05  1.78250740D-04
  1.36671360D-04  6.82085870D-05  3.24881830D-04  2.49098780D-04  1.24317750D-04
  8.25243890D-05  6.32744670D-05  3.15783940D-05  3.82385890D-05  5.89421060D-05
  7.78027980D-05  1.72242870D-05  6.64740540D-05  8.90692900D-06  1.29810360D-05
 -2.33792780D-06 -4.60873310D-05 -1.51093780D-05  3.30685090D-05  4.82519440D-05
 -2.08328120D-05  1.79261050D-05 -8.68914870D-06 -1.59926720D-05 -2.58791620D-05
 -3.40188830D-05 -2.91777980D-05 -9.97638480D-06  3.52447440D-05  1.57261360D-05
 -4.64394910D-05 -7.79964160D-05 -6.00920340D-05 -2.63836400D-05 -1.07898650D-04
 -8.31300960D-05 -3.64985900D-05  7.42197750D-05  5.71823360D-05  2.51061250D-05
  8.15609610D-05 -1.81203640D-05 -3.26871670D-05 -4.44819210D-05  3.03147310D-06
 -1.90161760D-06 -3.51381360D-07  5.00570340D-06 -8.12534190D-05 -1.19996210D-04
  1.87911070D-05 -9.08776370D-05  1.10515390D-05  4.13382530D-05  6.73986410D-01
  1.24120230D+00  2.00544470D+00  2.62469610D+00  2.24828740D+00  7.73436910D-01
 -1.79545520D-02 -8.87584810D-03  2.34139180D-02  8.77127840D-05  6.82858030D-05
  3.24245150D-05 -3.55905360D-04 -2.77078000D-04 -1.31566440D-04  8.82842080D-05
  6.87306660D-05  3.26357510D-05  9.16472370D-04 -1.99691620D-06  1.02427180D-04
  6.17554950D-05 -1.98085840D-04  6.61490600D-06  1.76298220D-05  1.64250770D-05
 -9.43215170D-03 -9.33677010D-03 -9.41510790D-03 -1.99211930D-06  1.83869820D-04
  7.30219050D-05 -4.01620430D-05 -7.39617580D-05 -1.19502050D-04 -1.56402500D-04
 -1.33972750D-04 -4.60881800D-05 -2.50894480D-06 -1.24029900D-06  3.27182920D-06
  3.90903360D-05  3.04324510D-05  1.44504040D-05  1.62646270D-05  1.26622720D-05
  6.01249450D-06 -1.61095610D-05 -1.25415500D-05 -5.95517170D-06  3.41911880D-05
 -2.89911000D-05 -1.68841170D-05  3.51504140D-05  3.44007850D-05 -2.32097480D-06
  1.81813860D-06  1.13238970D-05 -4.00378340D-06 -5.28832160D-05  1.27721730D-05
 -6.14062170D-05 -6.16490690D-05 -7.80671300D-05  1.41843150D-06  2.40592830D-06
  2.73906440D-06 -2.44327360D-05  3.83423070D-05  9.00349020D-06 -2.63123970D-05
  2.13391950D-06  3.61953140D-06  4.12070850D-06  2.79049650D-05  1.16052400D-05
  1.52700680D-05  2.90153360D-06  5.46135610D-05  9.26349370D-05  1.05461600D-04
 -1.28225580D-04 -3.17861200D-05 -1.02982680D-05  3.63371320D-05  5.99897350D-05
  1.01753950D-04  1.15843270D-04  1.12704000D-05 -2.01541540D-04  1.88729250D-05
  2.56622740D-04
MO    3     MO 0.00000000 OCC NO =    2.0000000  ORB. ENERGY =  -14.335329
 -3.78658760D-07 -6.98551470D-07 -1.12767870D-06 -1.46790260D-06 -1.25256390D-06
 -4.32480220D-07 -1.24129100D-05 -5.72109900D-06  1.60425590D-05 -5.53091360D-05
 -4.24075370D-05 -2.11643330D-05 -1.53742000D-04 -1.17879620D-04 -5.88301910D-05
 -2.76544240D-04 -2.12036580D-04 -1.05821120D-04 -6.10991010D-07 -2.17650910D-05
 -3.72926820D-05 -1.23012870D-05  4.75784810D-05 -6.86356250D-07 -9.52218790D-06
 -1.02249620D-05 -1.73366950D-05  7.67927310D-05  2.32247170D-04  1.11226720D-04
  8.11427690D-05  2.34937850D-04  3.03379910D-06  5.58380990D-06  9.03565840D-06
  1.18776260D-05  1.01873710D-05  3.48323510D-06 -2.55453590D-05 -1.13982900D-05
  3.36593020D-05 -2.42054710D-05 -1.86490110D-05 -8.18792020D-06  6.75866860D-07
  5.20718980D-07  2.28623680D-07  5.07561750D-05  3.91048960D-05  1.71691560D-05
 -3.84118420D-05  3.10626200D-08  6.82310180D-06  5.06470220D-05  3.14356660D-06
 -2.72094070D-06 -1.13739660D-06 -5.12915050D-06  1.62128800D-05  1.14892490D-05
 -9.40661630D-05 -6.37587010D-06  3.09159890D-05 -2.91144120D-05  4.00505190D-05
  7.37563770D-05  1.19170210D-04  1.55968190D-04  1.33600730D-04  4.59601990D-05
 -1.40090710D-05 -6.92539610D-06  1.82687510D-05  2.02295960D-05  1.57490630D-05
  7.47821240D-06  1.03236450D-05  8.03712230D-06  3.81631000D-06 -2.96933460D-05
 -2.31167440D-05 -1.09766480D-05  3.11067260D-05 -9.03663300D-06 -2.60746180D-06
  1.93745060D-05  3.99128580D-05 -4.78991270D-06 -2.53881600D-06  4.02642730D-06
  1.82914410D-07 -2.95945000D-05 -2.10575020D-05 -6.10863760D-05 -1.27544630D-05
 -5.24322370D-05  6.73924280D-01  1.24108790D+00  2.00525990D+00  2.62445410D+00
  2.24808020D+00  7.73365620D-01 -1.81823390D-02 -8.98845480D-03  2.37109680D-02
 -1.00594090D-03 -7.83141040D-04 -3.71863070D-04 -2.75122190D-04 -2.14187020D-04
 -1.01703570D-04 -5.83200600D-04 -4.54030980D-04 -2.15589970D-04  1.10490340D-03
  1.14669160D-06 -3.69104190D-05 -1.97187050D-05 -1.52837360D-04 -5.16078810D-06
 -3.55147820D-06 -2.32682600D-05 -9.31168250D-03 -9.48681220D-03 -9.71457310D-03
  5.03323960D-04  6.99667270D-05 -2.23530110D-05 -1.92008910D-05 -3.25683450D-05
 -3.70779100D-05 -1.09484400D-04 -4.21285190D-04 -3.54984520D-04 -8.47189730D-05
  6.64406830D-05  1.12695970D-04  1.28300380D-04 -9.60388800D-05  8.80022540D-06
 -1.30273700D-05 -3.99044880D-05  1.48558290D-06  2.51982970D-06  2.86873710D-06
 -2.28545940D-05  1.30783580D-05 -3.22931980D-06 -1.69060340D-05  1.47260060D-06
  2.49780940D-06  2.84366770D-06  1.64108100D-05  7.98716760D-06  2.06620140D-05
  1.25749310D-05
MO    4     MO 0.00000000 OCC NO =    2.0000000  ORB. ENERGY =  -10.321839
  5.32580980D-01  9.82507910D-01  1.58607240D+00  2.06459500D+00  1.76172270D+00
  6.08280500D-01 -1.99390280D-02 -9.18988000D-03  2.57693830D-02 -3.12632010D-05
 -2.39706390D-05 -1.19630290D-05 -1.33993030D-04 -1.02737360D-04 -5.12731410D-05
  3.44385470D-04  2.64052930D-04  1.31780920D-04 -2.79580200D-03 -1.23645610D-04
 -1.46526050D-04  1.37455930D-04 -4.08907890D-04 -3.00424770D-05 -2.63788740D-05
  5.73256970D-05 -1.01017290D-02 -9.74901890D-03 -9.68549260D-03  1.08493290D-03
 -6.37131030D-04 -5.00490700D-04 -2.85949560D-04 -5.26299840D-04 -8.51652490D-04
 -1.11952100D-03 -9.60206680D-04 -3.28310970D-04 -2.85509390D-04 -1.27393730D-04
  3.76195400D-04  3.31857000D-04  2.55677930D-04  1.12256380D-04  3.99013060D-04
  3.07418050D-04  1.34973080D-04 -5.73227750D-04 -4.41641080D-04 -1.93904220D-04
 -5.92220400D-04 -1.39291800D-04 -1.52898590D-04  3.19329010D-04  5.24336920D-04
  7.85730400D-05  8.45917680D-05 -1.76463260D-04  2.98087840D-04  2.66880760D-04
  1.31035070D-04 -4.34382400D-05  2.12587190D-05 -6.40212570D-05 -9.76527000D-05
 -1.79835610D-04 -2.90565350D-04 -3.80287570D-04 -3.25750390D-04 -1.12061910D-04
 -2.65503390D-05 -1.31251820D-05  3.46233890D-05  2.37925970D-04  1.85229170D-04
  8.79533620D-05  3.67912550D-04  2.86425800D-04  1.36005100D-04  1.68976980D-05
  1.31551280D-05  6.24651990D-06  2.66785530D-04 -5.48133300D-05 -9.73886430D-05
 -4.90266870D-05  4.39148370D-04 -6.40238610D-06 -4.19171880D-05 -5.41289320D-05
  2.06297270D-05 -3.41534880D-04 -1.14914080D-04 -4.09550420D-04  4.70800110D-06
 -4.52573020D-04 -4.21977860D-05 -7.77107480D-05 -1.25559400D-04 -1.64330260D-04
 -1.40763600D-04 -4.84243080D-05 -2.84542500D-05 -1.40663820D-05  3.71062150D-05
 -1.48742430D-06 -1.15798360D-06 -5.49851560D-07 -7.16248370D-05 -5.57610790D-05
 -2.64773330D-05 -8.02369920D-05 -6.24657790D-05 -2.96609620D-05  3.02111750D-04
  8.96723010D-05  1.08753120D-04 -4.19150100D-05  3.63119790D-04  3.96599040D-05
  4.60744190D-05 -1.30918540D-05  5.23835060D-05 -6.97166040D-05 -4.13433890D-04
 -6.02040050D-05 -2.01689510D-04 -4.77285140D-04  1.88316640D-05  3.19420670D-05
  3.63649140D-05 -2.35732870D-05  1.11983570D-04  3.37069320D-05 -1.16245170D-05
 -3.39923830D-06 -5.76575150D-06 -6.56410430D-06 -2.78651200D-04 -7.10243680D-05
 -1.25176290D-04 -7.75295130D-05  4.15616730D-05  7.04964640D-05  8.02577320D-05
 -4.89343920D-05  3.52850440D-05 -1.36711950D-04 -2.10954440D-04  5.16140490D-05
  8.75471960D-05  9.96693880D-05 -9.14315810D-05 -2.37427420D-04 -2.96187390D-04
  6.64583540D-05
MO    5     MO 0.00000000 OCC NO =    2.0000000  ORB. ENERGY =   -1.101127
 -7.66667800D-02 -1.41435240D-01 -2.28320330D-01 -2.97205230D-01 -2.53605760D-01
 -8.75639750D-02 -1.11274510D-01 -5.12863220D-02  1.43812200D-01 -9.13927610D-02
 -7.00741720D-02 -3.49719230D-02 -9.56871520D-02 -7.33668390D-02 -3.66151950D-02
  1.89843510D-01  1.45559970D-01  7.26446250D-02  1.26329140D-02  1.70670340D-03
  1.46868010D-03 -4.18975110D-03  3.97861650D-03 -8.46251470D-05 -1.45453870D-04
  6.98147530D-05 -1.88709470D-02 -1.36197420D-02  2.68887690D-03  2.51496270D-02
 -2.96843940D-02 -2.87587080D-02 -1.48068780D-01 -2.72525600D-01 -4.40997870D-01
 -5.79704040D-01 -4.97208780D-01 -1.70004130D-01 -2.31806840D-01 -1.03431760D-01
  3.05435370D-01  2.28530140D-01  1.76070150D-01  7.73042820D-02  2.68008500D-01
  2.06486100D-01  9.06585210D-02 -4.16507620D-01 -3.20896670D-01 -1.40890920D-01
  8.97061110D-02  4.73174360D-03  6.11682440D-03 -8.95935090D-03 -1.14889890D-03
  3.32417550D-04  4.93950460D-04 -4.25158510D-04 -6.58142470D-03 -5.70162760D-03
  2.14428210D-03  7.55585290D-03 -1.44114240D-02 -1.82079120D-02 -3.34468550D-02
 -6.15951780D-02 -9.95210270D-02 -1.30251630D-01 -1.11572190D-01 -3.83821270D-02
 -5.14013410D-02 -2.54102960D-02  6.70307330D-02 -5.48689020D-02 -4.27163160D-02
 -2.02832180D-02 -9.24170800D-02 -7.19481730D-02 -3.41635370D-02  8.52202890D-03
  6.63453560D-03  3.15031220D-03  2.00654420D-02 -2.05949330D-03 -3.81615480D-03
  7.50586130D-04 -3.43746770D-03  3.46590220D-04  5.80696790D-04 -3.87251040D-05
 -1.47185080D-03  6.30798360D-03 -4.29569580D-03  1.31784400D-02 -1.44815420D-03
  3.96789260D-03 -2.38057730D-02 -4.38403200D-02 -7.08340130D-02 -9.27064950D-02
 -7.94114220D-02 -2.73184490D-02 -3.54580350D-02 -1.75287100D-02  4.62396130D-02
 -9.51994670D-03 -7.41143060D-03 -3.51920940D-03  1.43874040D-02  1.12008240D-02
  5.31854730D-03  6.10426040D-02  4.75226420D-02  2.25654310D-02  1.19581360D-02
 -5.87286400D-04  2.98962390D-04  3.46760040D-03 -3.77158320D-03 -9.10089310D-05
 -2.40359420D-04 -5.01924600D-04 -2.91280300D-03 -1.95065660D-03  7.52717750D-03
  2.12363220D-03  1.58324690D-03  9.67683210D-03  4.90641800D-03  8.32221360D-03
  9.47454600D-03  4.36727350D-04  2.90761740D-03  2.87707710D-03  2.46430250D-03
  2.76534960D-03  4.69055640D-03  5.34003270D-03  1.61506030D-03 -8.24963780D-04
  4.48051330D-04  2.79018420D-03  4.60871950D-03  7.81726050D-03  8.89967480D-03
  4.33109560D-04 -1.09411550D-03 -4.23735060D-03 -2.61411000D-03  3.19087340D-03
  5.41232520D-03  6.16174090D-03  9.71825190D-05 -2.53436900D-03  5.11101490D-04
  3.61705460D-03
MO    6     MO 0.00000000 OCC NO =    2.0000000  ORB. ENERGY =   -0.919757
 -2.43795070D-02 -4.49754290D-02 -7.26042880D-02 -9.45092110D-02 -8.06448810D-02
 -2.78447390D-02 -3.51933510D-02 -1.62205830D-02  4.54842080D-02  1.52090630D-01
  1.16613450D-01  5.81982850D-02  2.00819130D-01  1.53975370D-01  7.68445020D-02
 -1.65832720D-01 -1.27150010D-01 -6.34567660D-02  7.43100820D-03 -2.54110290D-03
 -4.33246710D-03  8.27916010D-05  3.42902150D-03  3.96333690D-04  3.77865570D-04
 -6.17969830D-04 -1.08248220D-03  1.18913260D-02 -7.41823520D-03  1.73215840D-02
  2.09680770D-02  3.60115870D-02  7.45403220D-02  1.37193980D-01  2.22005760D-01
  2.91832790D-01  2.50303290D-01  8.55829450D-02  1.17199900D-01  5.22943690D-02
 -1.54425970D-01 -6.05409400D-02 -4.66435300D-02 -2.04790220D-02 -5.90585770D-02
 -4.55014490D-02 -1.99775870D-02  1.58337410D-01  1.21990440D-01  5.35603720D-02
 -5.32881680D-02 -3.20941090D-04  1.57848800D-04  3.62541520D-03 -3.96096920D-04
 -4.82763430D-04 -4.27046380D-04  6.93023760D-04  5.30211320D-03  5.39568360D-03
  3.42083510D-04  2.54403180D-04  2.20257110D-03  2.33106090D-03 -1.05791200D-01
 -1.94823330D-01 -3.14781420D-01 -4.11981210D-01 -3.52898830D-01 -1.21401290D-01
 -1.65439330D-01 -8.17850700D-02  2.15743770D-01 -3.91985380D-02 -3.05166880D-02
 -1.44904030D-02 -1.00220620D-01 -7.80233530D-02 -3.70482480D-02 -3.84576330D-02
 -2.99398810D-02 -1.42165150D-02  7.88436920D-02 -1.81037500D-03 -6.30544760D-03
 -4.01220740D-03 -4.00914700D-03 -6.79596560D-05  3.14605570D-04  6.32288510D-04
 -1.08774790D-02 -4.29366680D-03 -5.97547290D-03  7.85328060D-03 -3.82881660D-03
  1.76601840D-02 -6.87790070D-02 -1.26662290D-01 -2.04651750D-01 -2.67845150D-01
 -2.29433370D-01 -7.89277390D-02 -1.04688280D-01 -5.17527420D-02  1.36520420D-01
 -1.90872540D-02 -1.48597320D-02 -7.05592620D-03  1.70133290D-02  1.32451480D-02
  6.28926480D-03 -1.90622990D-02 -1.48403040D-02 -7.04670120D-03  4.49067740D-02
  3.30959880D-03  4.79522430D-03 -9.72800300D-04 -2.94534780D-03 -9.57857230D-05
 -2.92923750D-04 -4.30031270D-04 -6.03521780D-03 -4.92303920D-03 -3.06687410D-03
  8.96100800D-03  2.47644210D-03  9.71006600D-03  1.83843910D-02  3.11834070D-02
  3.55012070D-02  2.88841100D-03  1.15899560D-02  8.91240170D-03  7.55713970D-04
  1.48364640D-02  2.51654510D-02  2.86499760D-02 -3.43499750D-04 -7.54509090D-03
 -3.01049170D-03  1.24050110D-02  2.06872840D-02  3.50895500D-02  3.99482120D-02
  1.83918480D-03  3.19029620D-04 -1.21825250D-02 -1.45973620D-02  1.71061330D-02
  2.90152400D-02  3.30328250D-02  3.84294460D-03 -1.43232160D-02 -4.14613320D-03
  1.31631730D-02
MO    7     MO 0.00000000 OCC NO =    2.0000000  ORB. ENERGY =   -0.898224
  3.11511670D-03  5.74678210D-03  9.27708820D-03  1.20760120D-02  1.03044830D-02
  3.55789040D-03  5.83320080D-03  2.68851690D-03 -7.53888210D-03 -8.05435840D-02
 -6.17557120D-02 -3.08204280D-02 -1.61754460D-01 -1.24023060D-01 -6.18961990D-02
 -1.32155120D-01 -1.01328160D-01 -5.05698550D-02  2.39940550D-03  8.94883450D-04
  3.07736980D-03  4.50352210D-03  6.91807390D-04 -7.65678660D-06 -8.99564440D-05
 -7.54980230D-05 -2.52798270D-03 -7.66098850D-03  1.64280830D-02 -1.13752630D-02
  3.80308370D-03  1.08542920D-02  1.79347970D-03  3.30096000D-03  5.34157640D-03
  7.02165170D-03  6.02242990D-03  2.05917110D-03  1.83108270D-03  8.17025540D-04
 -2.41268740D-03 -4.36118360D-02 -3.36005690D-02 -1.47524600D-02 -8.65023050D-02
 -6.66453620D-02 -2.92609040D-02 -7.06529040D-02 -5.44342540D-02 -2.38995690D-02
 -4.11093590D-03 -2.60606080D-03 -4.91130770D-03 -2.50303150D-03 -3.96899320D-04
 -1.69990410D-04 -3.41463910D-04 -2.77954670D-04 -9.63200230D-04 -3.43367250D-03
  5.55889370D-03 -5.40827090D-03  9.63852740D-04  3.32495230D-03  7.63430240D-02
  1.40592060D-01  2.27158460D-01  2.97301590D-01  2.54665460D-01  8.76078680D-02
  1.19196830D-01  5.89250530D-02 -1.55440510D-01  3.24241260D-02  2.52427000D-02
  1.19861270D-02  5.14526350D-02  4.00566980D-02  1.90203370D-02 -3.46053730D-02
 -2.69408350D-02 -1.27924620D-02 -5.92705640D-02  2.11781770D-03  3.94186490D-03
 -1.73668220D-03  2.00685670D-03 -1.98737350D-04 -6.11397840D-04 -4.18979950D-04
  7.61531620D-03  3.12981890D-03  6.35718570D-03 -7.76700060D-03  6.79229530D-03
 -4.67253930D-03 -1.19216690D-01 -2.19547490D-01 -3.54728940D-01 -4.64263920D-01
 -3.97683660D-01 -1.36807790D-01 -1.81149880D-01 -8.95515940D-02  2.36231370D-01
 -9.99556860D-02 -7.78170980D-02 -3.69503110D-02 -6.03412130D-02 -4.69765980D-02
 -2.23061500D-02 -5.59336240D-02 -4.35452190D-02 -2.06768100D-02  8.43730470D-02
 -9.76305700D-04  1.52648970D-03  2.82165270D-03 -2.93786680D-03 -4.37765370D-04
 -6.25598070D-04 -9.37574550D-04 -9.88867730D-03 -1.34637350D-02 -4.38919060D-03
  1.26603700D-02 -6.56026510D-04  7.78453640D-03  3.67351280D-02  6.23097310D-02
  7.09374260D-02  1.60130810D-03  2.28227390D-02  1.74821240D-02  1.74038410D-03
  2.60451390D-02  4.41774850D-02  5.02945050D-02  2.37057910D-03 -1.38241380D-02
 -6.32779350D-03  2.09115470D-02 -1.74562900D-02 -2.96091710D-02 -3.37089950D-02
 -2.04214160D-04 -4.11977000D-05  1.07535790D-02  1.23268260D-02 -9.72839200D-03
 -1.65011940D-02 -1.87860260D-02 -1.24256350D-03  7.39456880D-03 -4.48793460D-04
 -1.01992900D-02
MO    8     MO 0.00000000 OCC NO =    2.0000000  ORB. ENERGY =   -0.640953
  5.62321120D-02  1.03737270D-01  1.67464110D-01  2.17988520D-01  1.86010000D-01
  6.42247810D-02  9.20327450D-02  4.24178080D-02 -1.18943960D-01 -1.18899680D-01
 -9.11647360D-02 -4.54975930D-02 -7.76074230D-02 -5.95044490D-02 -2.96968910D-02
  2.04934000D-01  1.57130390D-01  7.84190790D-02 -3.04491670D-02 -7.54048670D-03
 -6.75694370D-03  9.73357770D-03 -4.88109430D-04 -1.84820410D-04 -7.61341670D-05
  5.48761870D-04  7.84158480D-03  7.45496410D-03  8.99520770D-03 -9.22617440D-03
  1.74741710D-03 -4.15399760D-03 -3.29211350D-02 -6.05924630D-02 -9.80500430D-02
 -1.28889530D-01 -1.10547800D-01 -3.77981700D-02 -5.84953060D-02 -2.61004920D-02
  7.70751010D-02 -5.48049590D-02 -4.22242670D-02 -1.85387270D-02  1.19296610D-02
  9.19116060D-03  4.03541460D-03  1.16215640D-01  8.95378880D-02  3.93119550D-02
  1.81019570D-02 -4.42782200D-03 -2.05985350D-03  1.02535790D-02 -1.49852560D-03
  1.53672490D-04  6.34668140D-05 -2.75247700D-04  1.31550780D-04  2.36594000D-03
 -3.71222810D-03 -1.99429380D-03  7.00467460D-03  4.52204800D-03 -3.50256930D-02
 -6.45027400D-02 -1.04218850D-01 -1.36400080D-01 -1.16838890D-01 -4.01939320D-02
 -5.49815320D-02 -2.71801660D-02  7.16995370D-02  1.04004670D-01  8.09692970D-02
  3.84470860D-02  5.38503470D-01  4.19233550D-01  1.99066920D-01  4.71624140D-01
  3.67166920D-01  1.74343840D-01  3.83833560D-02  2.56328570D-03  1.79317980D-02
  1.69389760D-02  1.54224490D-03  2.12153960D-04  2.28032660D-04 -1.33707450D-04
 -5.01221970D-03 -1.11821950D-02  2.99076310D-03 -7.00918980D-03 -6.51596010D-03
  3.96672570D-04 -1.33715160D-02 -2.46247640D-02 -3.97869100D-02 -5.20725120D-02
 -4.46047740D-02 -1.53445590D-02 -1.96947870D-02 -9.73613460D-03  2.56832990D-02
 -2.13945000D-01 -1.66559600D-01 -7.90883880D-02 -2.88813000D-01 -2.24845540D-01
 -1.06764610D-01 -3.65731070D-01 -2.84727480D-01 -1.35198680D-01  1.01692870D-02
 -6.98429250D-03 -9.91262900D-03 -1.55746220D-02  2.36824030D-03  6.61406590D-06
  1.79569550D-05 -3.31394080D-04  3.20650530D-03 -3.60218120D-03 -8.54439650D-03
  6.47257020D-03 -2.62574080D-03 -1.05812250D-02  2.63432850D-02  4.46831970D-02
  5.08702400D-02  5.56025620D-03  1.02596760D-02  4.91261850D-03 -5.52652940D-03
  1.31752880D-02  2.23477810D-02  2.54421590D-02  1.58472210D-03 -9.48202600D-03
 -7.82772100D-03  3.58234560D-03  4.84697050D-02  8.22137930D-02  9.35974980D-02
  1.36079840D-02  3.21865490D-03 -1.29444440D-02 -2.05924390D-02 -7.98275280D-03
 -1.35402600D-02 -1.54151070D-02 -3.56521710D-03  8.15939300D-03  9.90106720D-03
  5.36268810D-04
MO    9     MO 0.00000000 OCC NO =    2.0000000  ORB. ENERGY =   -0.557670
 -1.02659110D-02 -1.89386010D-02 -3.05727740D-02 -3.97966670D-02 -3.39585680D-02
 -1.17250780D-02 -1.68195220D-02 -7.75210250D-03  2.17377050D-02 -1.65748280D-01
 -1.27085270D-01 -6.34244560D-02 -3.13764950D-01 -2.40575060D-01 -1.20063820D-01
 -3.03006640D-01 -2.32326270D-01 -1.15947090D-01  1.14276330D-02 -4.15408550D-03
 -4.76591550D-03 -1.26600480D-03  7.23928890D-04  9.29497100D-05  4.09047430D-04
  2.34802630D-04 -2.11834850D-03  1.26212300D-03  4.77412100D-03 -9.67533130D-04
  6.38601270D-03  1.48436270D-02  1.84968580D-02  3.40440920D-02  5.50897670D-02
  7.24170410D-02  6.21116750D-02  2.12370370D-02  2.92387320D-02  1.30462650D-02
 -3.85257960D-02 -1.65401770D-01 -1.27433150D-01 -5.59500160D-02 -3.29956110D-01
 -2.54213400D-01 -1.11613370D-01 -4.28790190D-01 -3.30359730D-01 -1.45045710D-01
 -2.38367220D-02 -8.86111850D-03 -1.69511130D-02 -1.68931200D-02 -3.36956200D-03
 -1.92606020D-04 -2.50968510D-04  3.00636150D-04 -3.77561470D-03 -9.66494570D-03
  1.78413170D-02 -1.38705960D-02  1.84568310D-05  5.97943970D-03 -8.87670410D-03
 -1.63471920D-02 -2.64126090D-02 -3.45684270D-02 -2.96109560D-02 -1.01865120D-02
 -1.31083080D-02 -6.48010320D-03  1.70940970D-02  1.86972020D-01  1.45560700D-01
  6.91173710D-02  4.99688230D-01  3.89015270D-01  1.84718210D-01  1.50146950D-01
  1.16891800D-01  5.55043600D-02  8.69751420D-03  9.06799280D-03  2.02016680D-02
  1.82338860D-03 -4.10087540D-03  6.33191390D-04  7.18408610D-04 -1.45585360D-04
 -2.15095810D-03 -6.64882640D-03  6.68139810D-03 -8.79042020D-03  8.74058630D-04
  1.49579570D-02 -1.38406950D-04 -2.54887960D-04 -4.11829500D-04 -5.38996280D-04
 -4.61698620D-04 -1.58829670D-04 -1.78695790D-03 -8.83384130D-04  2.33031070D-03
 -9.04106030D-02 -7.03860980D-02 -3.34218090D-02  1.18945330D-01  9.26008380D-02
  4.39701530D-02  7.22283470D-01  5.62309220D-01  2.67004310D-01  6.15199530D-03
 -4.32270160D-03  5.82279200D-03  3.44591550D-02  3.94553220D-03 -9.41279210D-05
  1.72169400D-04  1.39726580D-03 -3.18728270D-04  2.05665170D-03  5.71744580D-05
 -3.11106970D-03  4.01812310D-03  9.98577790D-03 -6.12433350D-03 -1.03880290D-02
 -1.18264040D-02 -2.30079770D-03 -6.08043400D-03 -5.40630290D-04  1.55789810D-02
 -3.81269830D-02 -6.46705790D-02 -7.36251680D-02 -1.39033420D-02  9.23895960D-03
  5.80480890D-03 -1.03366090D-02  2.93318460D-02  4.97523620D-02  5.66413060D-02
  1.38191980D-02  4.40577390D-03 -1.18337310D-03 -1.18389900D-02  2.63962020D-03
  4.47729550D-03  5.09724270D-03  4.66696430D-04  2.94604610D-03  6.20966970D-03
  9.47426290D-04
MO   10     MO 0.00000000 OCC NO =    2.0000000  ORB. ENERGY =   -0.522921
  2.53586860D-02  4.67818250D-02  7.55203710D-02  9.83050830D-02  8.38839060D-02
  2.89630970D-02  4.44192270D-02  2.04727810D-02 -5.74078160D-02  6.02134440D-02
  4.61678490D-02  2.30409930D-02 -1.93914500D-01 -1.48681340D-01 -7.42024070D-02
 -1.14395800D-01 -8.77114410D-02 -4.37741560D-02 -2.46220640D-02  9.30469340D-03
  3.94611610D-03 -5.31343970D-03  1.82661610D-03  2.59471000D-04  1.64961640D-04
 -1.41014620D-05  5.35018660D-03 -4.21705740D-03  1.23821730D-02 -1.02262630D-02
 -2.01596210D-02 -2.56806870D-02 -4.62393150D-02 -8.51050240D-02 -1.37715990D-01
 -1.81031530D-01 -1.55269690D-01 -5.30893440D-02 -7.36823980D-02 -3.28769420D-02
  9.70860510D-02 -4.68200270D-02 -3.60723070D-02 -1.58376860D-02 -4.23829280D-01
 -3.26537610D-01 -1.43367600D-01  1.98822000D-01  1.53181630D-01  6.72549870D-02
  6.25252850D-02  8.69512160D-04 -1.62503510D-02  1.23936590D-03  9.69980880D-03
  4.82873190D-04  4.39537010D-04 -1.09864450D-03  4.43384560D-04 -1.14256700D-02
 -2.13003060D-03 -1.06583660D-02 -7.47425930D-05  1.64305220D-02 -3.98451170D-03
 -7.33781130D-03 -1.18559040D-02 -1.55168300D-02 -1.32915550D-02 -4.57244900D-03
 -6.88333540D-03 -3.40278260D-03  8.97632250D-03  4.12736950D-01  3.21322300D-01
  1.52575200D-01  2.80601850D-01  2.18453020D-01  1.03729220D-01 -1.71292270D-01
 -1.33353770D-01 -6.33210860D-02 -1.31539090D-03  2.14086640D-02  1.37378340D-02
 -8.95985470D-03 -5.99882210D-03  6.47984940D-04  1.03612170D-03 -4.19974390D-05
 -1.63442500D-03 -2.77538200D-03  8.35109000D-03 -1.34384200D-02 -9.76290080D-03
  6.00713870D-03 -5.81108910D-03 -1.07016060D-02 -1.72908800D-02 -2.26300450D-02
 -1.93846620D-02 -6.66854820D-03 -9.08008710D-03 -4.48874870D-03  1.18410310D-02
  6.52562230D-01  5.08030120D-01  2.41230670D-01  3.71549280D-01  2.89257050D-01
  1.37349480D-01 -2.32803730D-01 -1.81241420D-01 -8.60598360D-02  1.22547360D-02
  2.91653470D-02  1.57698100D-02 -6.95734180D-03 -4.15252620D-05  7.48932890D-04