 Entering Gaussian System, Link 0=/opt/software/RI/non-eb/apps/binapps/gaussian/g16c01_em64t_haswell/g16/g16
 Input=/gpfs01/scratch/mbdxwym4/urea_631g_sample_set_5000K/10k_random_sample_set_5000K_PARENT/10k_random_sample_set_5000K1/10k_random_sample_set_5000K05000/10k_random_sample_set_5000K05000.gjf
 Output=/gpfs01/scratch/mbdxwym4/urea_631g_sample_set_5000K/10k_random_sample_set_5000K_PARENT/10k_random_sample_set_5000K1/10k_random_sample_set_5000K05000/10k_random_sample_set_5000K05000.gau
 Initial command:
 /opt/software/RI/non-eb/apps/binapps/gaussian/g16c01_em64t_haswell/g16/l1.exe "/gpfs01/scratch/mbdxwym4/urea_631g_sample_set_5000K/10k_random_sample_set_5000K_PARENT/10k_random_sample_set_5000K1/10k_random_sample_set_5000K05000/Gau-22540.inp" -scrdir="/gpfs01/scratch/mbdxwym4/urea_631g_sample_set_5000K/10k_random_sample_set_5000K_PARENT/10k_random_sample_set_5000K1/10k_random_sample_set_5000K05000/"
 Entering Link 1 = /opt/software/RI/non-eb/apps/binapps/gaussian/g16c01_em64t_haswell/g16/l1.exe PID=     22541.

 Copyright (c) 1988-2019, Gaussian, Inc.  All Rights Reserved.

 This is part of the Gaussian(R) 16 program.  It is based on
 the Gaussian(R) 09 system (copyright 2009, Gaussian, Inc.),
 the Gaussian(R) 03 system (copyright 2003, Gaussian, Inc.),
 the Gaussian(R) 98 system (copyright 1998, Gaussian, Inc.),
 the Gaussian(R) 94 system (copyright 1995, Gaussian, Inc.),
 the Gaussian 92(TM) system (copyright 1992, Gaussian, Inc.),
 the Gaussian 90(TM) system (copyright 1990, Gaussian, Inc.),
 the Gaussian 88(TM) system (copyright 1988, Gaussian, Inc.),
 the Gaussian 86(TM) system (copyright 1986, Carnegie Mellon
 University), and the Gaussian 82(TM) system (copyright 1983,
 Carnegie Mellon University). Gaussian is a federally registered
 trademark of Gaussian, Inc.

 This software contains proprietary and confidential information,
 including trade secrets, belonging to Gaussian, Inc.

 This software is provided under written license and may be
 used, copied, transmitted, or stored only in accord with that
 written license.

 The following legend is applicable only to US Government
 contracts under FAR:

                    RESTRICTED RIGHTS LEGEND

 Use, reproduction and disclosure by the US Government is
 subject to restrictions as set forth in subparagraphs (a)
 and (c) of the Commercial Computer Software - Restricted
 Rights clause in FAR 52.227-19.

 Gaussian, Inc.
 340 Quinnipiac St., Bldg. 40, Wallingford CT 06492


 ---------------------------------------------------------------
 Warning -- This program may not be used in any manner that
 competes with the business of Gaussian, Inc. or will provide
 assistance to any competitor of Gaussian, Inc.  The licensee
 of this program is prohibited from giving any competitor of
 Gaussian, Inc. access to this program.  By using this program,
 the user acknowledges that Gaussian, Inc. is engaged in the
 business of creating and licensing software in the field of
 computational chemistry and represents and warrants to the
 licensee that it is not a competitor of Gaussian, Inc. and that
 it will not use this program in any manner prohibited above.
 ---------------------------------------------------------------


 Cite this work as:
 Gaussian 16, Revision C.01,
 M. J. Frisch, G. W. Trucks, H. B. Schlegel, G. E. Scuseria,
 M. A. Robb, J. R. Cheeseman, G. Scalmani, V. Barone,
 G. A. Petersson, H. Nakatsuji, X. Li, M. Caricato, A. V. Marenich,
 J. Bloino, B. G. Janesko, R. Gomperts, B. Mennucci, H. P. Hratchian,
 J. V. Ortiz, A. F. Izmaylov, J. L. Sonnenberg, D. Williams-Young,
 F. Ding, F. Lipparini, F. Egidi, J. Goings, B. Peng, A. Petrone,
 T. Henderson, D. Ranasinghe, V. G. Zakrzewski, J. Gao, N. Rega,
 G. Zheng, W. Liang, M. Hada, M. Ehara, K. Toyota, R. Fukuda,
 J. Hasegawa, M. Ishida, T. Nakajima, Y. Honda, O. Kitao, H. Nakai,
 T. Vreven, K. Throssell, J. A. Montgomery, Jr., J. E. Peralta,
 F. Ogliaro, M. J. Bearpark, J. J. Heyd, E. N. Brothers, K. N. Kudin,
 V. N. Staroverov, T. A. Keith, R. Kobayashi, J. Normand,
 K. Raghavachari, A. P. Rendell, J. C. Burant, S. S. Iyengar,
 J. Tomasi, M. Cossi, J. M. Millam, M. Klene, C. Adamo, R. Cammi,
 J. W. Ochterski, R. L. Martin, K. Morokuma, O. Farkas,
 J. B. Foresman, and D. J. Fox, Gaussian, Inc., Wallingford CT, 2019.

 ******************************************
 Gaussian 16:  ES64L-G16RevC.01  3-Jul-2019
                 3-Jun-2023
 ******************************************
 --------------------------------------------------------
 #p b3lyp/6-31+g(d,p) nosymm output=wfn force geom=notest
 --------------------------------------------------------
 1/10=7,30=1,38=1/1,3;
 2/12=3,15=1,17=6,18=5,40=1/2;
 3/5=1,6=6,7=111,11=2,25=1,30=1,71=1,74=-5/1,2,3;
 4//1;
 5/5=2,38=5/2;
 6/7=2,8=2,9=2,10=2,28=1/1;
 7/29=1,30=1/1,2,3,16;
 1/10=7,30=1/3;
 99/6=100/99;
 Leave Link    1 at Sat Jun  3 04:40:32 2023, MaxMem=           0 cpu:               0.1 elap:               0.3
 (Enter /opt/software/RI/non-eb/apps/binapps/gaussian/g16c01_em64t_haswell/g16/l101.exe)
 --------------------------------
 10k_random_sample_set_5000K05000
 --------------------------------
 Symbolic Z-matrix:
 Charge =  0 Multiplicity = 1
 C                    -2.933     0.927     0.522
 O                    -3.41      0.385     1.394
 N                    -2.288     2.072     0.747
 N                    -3.109     0.284    -0.8
 H                    -3.781    -0.228    -0.929
 H                    -2.694     0.431    -1.683
 H                    -2.316     2.688     1.509
 H                    -1.561     1.991    -0.188

 ITRead=  0  0  0  0  0  0  0  0
 MicOpt= -1 -1 -1 -1 -1 -1 -1 -1
 NAtoms=      8 NQM=        8 NQMF=       0 NMMI=      0 NMMIF=      0
                NMic=       0 NMicF=      0.
                    Isotopes and Nuclear Properties:
 (Nuclear quadrupole moments (NQMom) in fm**2, nuclear magnetic moments (NMagM)
  in nuclear magnetons)

  Atom         1           2           3           4           5           6           7           8
 IAtWgt=          12          16          14          14           1           1           1           1
 AtmWgt=  12.0000000  15.9949146  14.0030740  14.0030740   1.0078250   1.0078250   1.0078250   1.0078250
 NucSpn=           0           0           2           2           1           1           1           1
 AtZEff=  -0.0000000  -0.0000000  -0.0000000  -0.0000000  -0.0000000  -0.0000000  -0.0000000  -0.0000000
 NQMom=    0.0000000   0.0000000   2.0440000   2.0440000   0.0000000   0.0000000   0.0000000   0.0000000
 NMagM=    0.0000000   0.0000000   0.4037610   0.4037610   2.7928460   2.7928460   2.7928460   2.7928460
 AtZNuc=   6.0000000   8.0000000   7.0000000   7.0000000   1.0000000   1.0000000   1.0000000   1.0000000
 Leave Link  101 at Sat Jun  3 04:40:32 2023, MaxMem=   104857600 cpu:               0.1 elap:               0.1
 (Enter /opt/software/RI/non-eb/apps/binapps/gaussian/g16c01_em64t_haswell/g16/l103.exe)

 GradGradGradGradGradGradGradGradGradGradGradGradGradGradGradGradGradGrad
 Berny optimization.
 Initialization pass.
 Trust Radius=3.00D-01 FncErr=1.00D-07 GrdErr=1.00D-07 EigMax=2.50D+02 EigMin=1.00D-04
 Number of steps in this run=      2 maximum allowed number of steps=      2.
 GradGradGradGradGradGradGradGradGradGradGradGradGradGradGradGradGradGrad

 Leave Link  103 at Sat Jun  3 04:40:32 2023, MaxMem=   104857600 cpu:               0.0 elap:               0.0
 (Enter /opt/software/RI/non-eb/apps/binapps/gaussian/g16c01_em64t_haswell/g16/l202.exe)
                          Input orientation:
 ---------------------------------------------------------------------
 Center     Atomic      Atomic             Coordinates (Angstroms)
 Number     Number       Type             X           Y           Z
 ---------------------------------------------------------------------
      1          6           0       -2.933000    0.927000    0.522000
      2          8           0       -3.410000    0.385000    1.394000
      3          7           0       -2.288000    2.072000    0.747000
      4          7           0       -3.109000    0.284000   -0.800000
      5          1           0       -3.781000   -0.228000   -0.929000
      6          1           0       -2.694000    0.431000   -1.683000
      7          1           0       -2.316000    2.688000    1.509000
      8          1           0       -1.561000    1.991000   -0.188000
 ---------------------------------------------------------------------
                    Distance matrix (angstroms):
                    1          2          3          4          5
     1  C    0.000000
     2  O    1.132112   0.000000
     3  N    1.333295   2.126843   0.000000
     4  N    1.480577   2.216853   2.502837   0.000000
     5  H    2.039247   2.430995   3.213724   0.854616   0.000000
     6  H    2.272699   3.159541   2.960172   0.986673   1.477960
     7  H    2.110919   2.552228   0.980247   3.426302   4.073466
     8  H    1.875788   2.915606   1.187146   2.384260   3.225127
                    6          7          8
     6  H    0.000000
     7  H    3.927569   0.000000
     8  H    2.439736   1.983846   0.000000
 Symmetry turned off by external request.
 Stoichiometry    CH4N2O
 Framework group  C1[X(CH4N2O)]
 Deg. of freedom    18
 Full point group                 C1      NOp   1
 Rotational constants (GHZ):          13.5438424           8.9837498           5.4521918
 Leave Link  202 at Sat Jun  3 04:40:33 2023, MaxMem=   104857600 cpu:               0.0 elap:               0.0
 (Enter /opt/software/RI/non-eb/apps/binapps/gaussian/g16c01_em64t_haswell/g16/l301.exe)
 Standard basis: 6-31+G(d,p) (6D, 7F)
 Ernie: Thresh=  0.10000D-02 Tol=  0.10000D-05 Strict=F.
    96 basis functions,   156 primitive gaussians,    96 cartesian basis functions
    16 alpha electrons       16 beta electrons
       nuclear repulsion energy       125.4180587698 Hartrees.
 IExCor=  402 DFT=T Ex+Corr=B3LYP ExCW=0 ScaHFX=  0.200000
 ScaDFX=  0.800000  0.720000  1.000000  0.810000 ScalE2=  1.000000  1.000000
 IRadAn=      5 IRanWt=     -1 IRanGd=            0 ICorTp=0 IEmpDi=  4
 NAtoms=    8 NActive=    8 NUniq=    8 SFac= 1.00D+00 NAtFMM=   60 NAOKFM=F Big=F
 Integral buffers will be    131072 words long.
 Raffenetti 2 integral format.
 Two-electron integral symmetry is turned off.
 Leave Link  301 at Sat Jun  3 04:40:33 2023, MaxMem=   104857600 cpu:               0.1 elap:               0.1
 (Enter /opt/software/RI/non-eb/apps/binapps/gaussian/g16c01_em64t_haswell/g16/l302.exe)
 NPDir=0 NMtPBC=     1 NCelOv=     1 NCel=       1 NClECP=     1 NCelD=      1
         NCelK=      1 NCelE2=     1 NClLst=     1 CellRange=     0.0.
 One-electron integrals computed using PRISM.
 NBasis=    96 RedAO= T EigKep=  2.10D-03  NBF=    96
 NBsUse=    96 1.00D-06 EigRej= -1.00D+00 NBFU=    96
 Precomputing XC quadrature grid using
 IXCGrd= 4 IRadAn=           5 IRanWt=          -1 IRanGd=           0 AccXCQ= 0.00D+00.
 Generated NRdTot=       0 NPtTot=           0 NUsed=           0 NTot=          32
 NSgBfM=    96    96    96    96    96 MxSgAt=     8 MxSgA2=     8.
 Leave Link  302 at Sat Jun  3 04:40:33 2023, MaxMem=   104857600 cpu:               0.2 elap:               0.2
 (Enter /opt/software/RI/non-eb/apps/binapps/gaussian/g16c01_em64t_haswell/g16/l303.exe)
 DipDrv:  MaxL=1.
 Leave Link  303 at Sat Jun  3 04:40:33 2023, MaxMem=   104857600 cpu:               0.0 elap:               0.0
 (Enter /opt/software/RI/non-eb/apps/binapps/gaussian/g16c01_em64t_haswell/g16/l401.exe)
 ExpMin= 4.38D-02 ExpMax= 5.48D+03 ExpMxC= 8.25D+02 IAcc=3 IRadAn=         5 AccDes= 0.00D+00
 Harris functional with IExCor=  402 and IRadAn=       5 diagonalized for initial guess.
 HarFok:  IExCor=  402 AccDes= 0.00D+00 IRadAn=         5 IDoV= 1 UseB2=F ITyADJ=14
 ICtDFT=  3500011 ScaDFX=  1.000000  1.000000  1.000000  1.000000
 FoFCou: FMM=F IPFlag=           0 FMFlag=      100000 FMFlg1=           0
         NFxFlg=           0 DoJE=T BraDBF=F KetDBF=T FulRan=T
         wScrn=  0.000000 ICntrl=       500 IOpCl=  0 I1Cent=   200000004 NGrid=           0
         NMat0=    1 NMatS0=      1 NMatT0=    0 NMatD0=    1 NMtDS0=    0 NMtDT0=    0
 Symmetry not used in FoFCou.
 Harris En= -225.216236829431
 JPrj=0 DoOrth=F DoCkMO=F.
 Leave Link  401 at Sat Jun  3 04:40:34 2023, MaxMem=   104857600 cpu:               1.0 elap:               1.0
 (Enter /opt/software/RI/non-eb/apps/binapps/gaussian/g16c01_em64t_haswell/g16/l502.exe)
 Keep R1 ints in memory in canonical form, NReq=11764633.
 FoFCou: FMM=F IPFlag=           0 FMFlag=           0 FMFlg1=           0
         NFxFlg=           0 DoJE=F BraDBF=F KetDBF=F FulRan=T
         wScrn=  0.000000 ICntrl=       600 IOpCl=  0 I1Cent=           0 NGrid=           0
         NMat0=    1 NMatS0=   4656 NMatT0=    0 NMatD0=    1 NMtDS0=    0 NMtDT0=    0
 Symmetry not used in FoFCou.
 Two-electron integral symmetry not used.
 Closed shell SCF:
 Using DIIS extrapolation, IDIIS=  1040.
 NGot=   104857600 LenX=    93996034 LenY=    93986377
 Requested convergence on RMS density matrix=1.00D-08 within 128 cycles.
 Requested convergence on MAX density matrix=1.00D-06.
 Requested convergence on             energy=1.00D-06.
 No special actions if energy rises.

 Cycle   1  Pass 1  IDiag  1:
 E= -224.986752155725
 DIIS: error= 4.52D-02 at cycle   1 NSaved=   1.
 NSaved= 1 IEnMin= 1 EnMin= -224.986752155725     IErMin= 1 ErrMin= 4.52D-02
 ErrMax= 4.52D-02  0.00D+00 EMaxC= 1.00D-01 BMatC= 2.38D-01 BMatP= 2.38D-01
 IDIUse=3 WtCom= 5.48D-01 WtEn= 4.52D-01
 Coeff-Com:  0.100D+01
 Coeff-En:   0.100D+01
 Coeff:      0.100D+01
 Gap=     0.279 Goal=   None    Shift=    0.000
 GapD=    0.279 DampG=1.000 DampE=0.500 DampFc=0.5000 IDamp=-1.
 Damping current iteration by 5.00D-01
 RMSDP=1.71D-02 MaxDP=3.15D-01              OVMax= 3.42D-01

 Cycle   2  Pass 1  IDiag  1:
 E= -225.019382410147     Delta-E=       -0.032630254422 Rises=F Damp=T
 DIIS: error= 1.45D-02 at cycle   2 NSaved=   2.
 NSaved= 2 IEnMin= 2 EnMin= -225.019382410147     IErMin= 2 ErrMin= 1.45D-02
 ErrMax= 1.45D-02  0.00D+00 EMaxC= 1.00D-01 BMatC= 3.36D-02 BMatP= 2.38D-01
 IDIUse=3 WtCom= 8.55D-01 WtEn= 1.45D-01
 Coeff-Com:  0.241D+00 0.759D+00
 Coeff-En:   0.419D+00 0.581D+00
 Coeff:      0.267D+00 0.733D+00
 Gap=     0.245 Goal=   None    Shift=    0.000
 RMSDP=6.11D-03 MaxDP=1.44D-01 DE=-3.26D-02 OVMax= 2.62D-01

 Cycle   3  Pass 1  IDiag  1:
 E= -225.160256855060     Delta-E=       -0.140874444913 Rises=F Damp=F
 DIIS: error= 9.65D-03 at cycle   3 NSaved=   3.
 NSaved= 3 IEnMin= 3 EnMin= -225.160256855060     IErMin= 3 ErrMin= 9.65D-03
 ErrMax= 9.65D-03  0.00D+00 EMaxC= 1.00D-01 BMatC= 1.97D-02 BMatP= 3.36D-02
 IDIUse=3 WtCom= 9.03D-01 WtEn= 9.65D-02
 Coeff-Com:  0.120D+00 0.463D+00 0.417D+00
 Coeff-En:   0.000D+00 0.000D+00 0.100D+01
 Coeff:      0.109D+00 0.418D+00 0.473D+00
 Gap=     0.253 Goal=   None    Shift=    0.000
 RMSDP=1.54D-03 MaxDP=2.88D-02 DE=-1.41D-01 OVMax= 5.84D-02

 Cycle   4  Pass 1  IDiag  1:
 E= -225.174535298563     Delta-E=       -0.014278443503 Rises=F Damp=F
 DIIS: error= 2.71D-03 at cycle   4 NSaved=   4.
 NSaved= 4 IEnMin= 4 EnMin= -225.174535298563     IErMin= 4 ErrMin= 2.71D-03
 ErrMax= 2.71D-03  0.00D+00 EMaxC= 1.00D-01 BMatC= 2.08D-03 BMatP= 1.97D-02
 IDIUse=3 WtCom= 9.73D-01 WtEn= 2.71D-02
 Coeff-Com: -0.110D-01 0.412D-01 0.250D+00 0.720D+00
 Coeff-En:   0.000D+00 0.000D+00 0.900D-01 0.910D+00
 Coeff:     -0.107D-01 0.401D-01 0.246D+00 0.725D+00
 Gap=     0.241 Goal=   None    Shift=    0.000
 RMSDP=3.73D-04 MaxDP=6.75D-03 DE=-1.43D-02 OVMax= 1.05D-02

 Cycle   5  Pass 1  IDiag  1:
 E= -225.176196201293     Delta-E=       -0.001660902730 Rises=F Damp=F
 DIIS: error= 2.26D-04 at cycle   5 NSaved=   5.
 NSaved= 5 IEnMin= 5 EnMin= -225.176196201293     IErMin= 5 ErrMin= 2.26D-04
 ErrMax= 2.26D-04  0.00D+00 EMaxC= 1.00D-01 BMatC= 8.28D-06 BMatP= 2.08D-03
 IDIUse=3 WtCom= 9.98D-01 WtEn= 2.26D-03
 Coeff-Com: -0.410D-02-0.357D-03 0.439D-01 0.162D+00 0.799D+00
 Coeff-En:   0.000D+00 0.000D+00 0.000D+00 0.000D+00 0.100D+01
 Coeff:     -0.409D-02-0.356D-03 0.438D-01 0.161D+00 0.799D+00
 Gap=     0.240 Goal=   None    Shift=    0.000
 RMSDP=5.03D-05 MaxDP=6.16D-04 DE=-1.66D-03 OVMax= 1.15D-03

 Cycle   6  Pass 1  IDiag  1:
 E= -225.176203084236     Delta-E=       -0.000006882943 Rises=F Damp=F
 DIIS: error= 7.53D-05 at cycle   6 NSaved=   6.
 NSaved= 6 IEnMin= 6 EnMin= -225.176203084236     IErMin= 6 ErrMin= 7.53D-05
 ErrMax= 7.53D-05  0.00D+00 EMaxC= 1.00D-01 BMatC= 1.47D-06 BMatP= 8.28D-06
 IDIUse=1 WtCom= 1.00D+00 WtEn= 0.00D+00
 Coeff-Com: -0.142D-02-0.104D-02 0.154D-01 0.580D-01 0.374D+00 0.555D+00
 Coeff:     -0.142D-02-0.104D-02 0.154D-01 0.580D-01 0.374D+00 0.555D+00
 Gap=     0.240 Goal=   None    Shift=    0.000
 RMSDP=1.54D-05 MaxDP=2.89D-04 DE=-6.88D-06 OVMax= 4.19D-04

 Cycle   7  Pass 1  IDiag  1:
 E= -225.176204175699     Delta-E=       -0.000001091463 Rises=F Damp=F
 DIIS: error= 3.58D-05 at cycle   7 NSaved=   7.
 NSaved= 7 IEnMin= 7 EnMin= -225.176204175699     IErMin= 7 ErrMin= 3.58D-05
 ErrMax= 3.58D-05  0.00D+00 EMaxC= 1.00D-01 BMatC= 2.96D-07 BMatP= 1.47D-06
 IDIUse=1 WtCom= 1.00D+00 WtEn= 0.00D+00
 Coeff-Com:  0.115D-03-0.641D-03 0.446D-06-0.155D-03 0.567D-01 0.315D+00
 Coeff-Com:  0.629D+00
 Coeff:      0.115D-03-0.641D-03 0.446D-06-0.155D-03 0.567D-01 0.315D+00
 Coeff:      0.629D+00
 Gap=     0.240 Goal=   None    Shift=    0.000
 RMSDP=6.40D-06 MaxDP=1.01D-04 DE=-1.09D-06 OVMax= 1.74D-04

 Cycle   8  Pass 1  IDiag  1:
 E= -225.176204424760     Delta-E=       -0.000000249061 Rises=F Damp=F
 DIIS: error= 5.82D-06 at cycle   8 NSaved=   8.
 NSaved= 8 IEnMin= 8 EnMin= -225.176204424760     IErMin= 8 ErrMin= 5.82D-06
 ErrMax= 5.82D-06  0.00D+00 EMaxC= 1.00D-01 BMatC= 5.63D-09 BMatP= 2.96D-07
 IDIUse=1 WtCom= 1.00D+00 WtEn= 0.00D+00
 Coeff-Com:  0.765D-04-0.174D-03-0.425D-03-0.200D-02 0.136D-02 0.612D-01
 Coeff-Com:  0.182D+00 0.758D+00
 Coeff:      0.765D-04-0.174D-03-0.425D-03-0.200D-02 0.136D-02 0.612D-01
 Coeff:      0.182D+00 0.758D+00
 Gap=     0.240 Goal=   None    Shift=    0.000
 RMSDP=1.25D-06 MaxDP=1.86D-05 DE=-2.49D-07 OVMax= 2.47D-05

 Cycle   9  Pass 1  IDiag  1:
 E= -225.176204429301     Delta-E=       -0.000000004541 Rises=F Damp=F
 DIIS: error= 2.76D-06 at cycle   9 NSaved=   9.
 NSaved= 9 IEnMin= 9 EnMin= -225.176204429301     IErMin= 9 ErrMin= 2.76D-06
 ErrMax= 2.76D-06  0.00D+00 EMaxC= 1.00D-01 BMatC= 1.05D-09 BMatP= 5.63D-09
 IDIUse=1 WtCom= 1.00D+00 WtEn= 0.00D+00
 Coeff-Com:  0.262D-04-0.179D-04-0.195D-03-0.102D-02-0.449D-02 0.303D-03
 Coeff-Com:  0.296D-01 0.341D+00 0.635D+00
 Coeff:      0.262D-04-0.179D-04-0.195D-03-0.102D-02-0.449D-02 0.303D-03
 Coeff:      0.296D-01 0.341D+00 0.635D+00
 Gap=     0.240 Goal=   None    Shift=    0.000
 RMSDP=4.97D-07 MaxDP=6.41D-06 DE=-4.54D-09 OVMax= 9.92D-06

 Cycle  10  Pass 1  IDiag  1:
 E= -225.176204430290     Delta-E=       -0.000000000989 Rises=F Damp=F
 DIIS: error= 5.03D-07 at cycle  10 NSaved=  10.
 NSaved=10 IEnMin=10 EnMin= -225.176204430290     IErMin=10 ErrMin= 5.03D-07
 ErrMax= 5.03D-07  0.00D+00 EMaxC= 1.00D-01 BMatC= 4.05D-11 BMatP= 1.05D-09
 IDIUse=1 WtCom= 1.00D+00 WtEn= 0.00D+00
 Coeff-Com:  0.597D-06 0.104D-05-0.221D-04-0.185D-03-0.144D-02-0.423D-02
 Coeff-Com: -0.119D-02 0.596D-01 0.215D+00 0.732D+00
 Coeff:      0.597D-06 0.104D-05-0.221D-04-0.185D-03-0.144D-02-0.423D-02
 Coeff:     -0.119D-02 0.596D-01 0.215D+00 0.732D+00
 Gap=     0.240 Goal=   None    Shift=    0.000
 RMSDP=8.11D-08 MaxDP=9.70D-07 DE=-9.89D-10 OVMax= 1.60D-06

 Cycle  11  Pass 1  IDiag  1:
 E= -225.176204430330     Delta-E=       -0.000000000040 Rises=F Damp=F
 DIIS: error= 7.08D-08 at cycle  11 NSaved=  11.
 NSaved=11 IEnMin=11 EnMin= -225.176204430330     IErMin=11 ErrMin= 7.08D-08
 ErrMax= 7.08D-08  0.00D+00 EMaxC= 1.00D-01 BMatC= 1.07D-12 BMatP= 4.05D-11
 IDIUse=1 WtCom= 1.00D+00 WtEn= 0.00D+00
 Coeff-Com: -0.824D-06 0.133D-05 0.734D-05 0.597D-05-0.968D-04-0.945D-03
 Coeff-Com: -0.142D-02-0.538D-02 0.141D-01 0.135D+00 0.858D+00
 Coeff:     -0.824D-06 0.133D-05 0.734D-05 0.597D-05-0.968D-04-0.945D-03
 Coeff:     -0.142D-02-0.538D-02 0.141D-01 0.135D+00 0.858D+00
 Gap=     0.240 Goal=   None    Shift=    0.000
 RMSDP=1.89D-08 MaxDP=2.04D-07 DE=-3.98D-11 OVMax= 4.64D-07

 Cycle  12  Pass 1  IDiag  1:
 E= -225.176204430330     Delta-E=       -0.000000000000 Rises=F Damp=F
 DIIS: error= 9.35D-09 at cycle  12 NSaved=  12.
 NSaved=12 IEnMin=12 EnMin= -225.176204430330     IErMin=12 ErrMin= 9.35D-09
 ErrMax= 9.35D-09  0.00D+00 EMaxC= 1.00D-01 BMatC= 2.10D-14 BMatP= 1.07D-12
 IDIUse=1 WtCom= 1.00D+00 WtEn= 0.00D+00
 Coeff-Com: -0.959D-07 0.184D-06 0.217D-05 0.495D-05 0.110D-04-0.797D-04
 Coeff-Com: -0.226D-03-0.231D-02-0.237D-02 0.972D-02 0.190D+00 0.806D+00
 Coeff:     -0.959D-07 0.184D-06 0.217D-05 0.495D-05 0.110D-04-0.797D-04
 Coeff:     -0.226D-03-0.231D-02-0.237D-02 0.972D-02 0.190D+00 0.806D+00
 Gap=     0.240 Goal=   None    Shift=    0.000
 RMSDP=3.02D-09 MaxDP=5.21D-08 DE=-2.84D-13 OVMax= 4.58D-08

 SCF Done:  E(RB3LYP) =  -225.176204430     A.U. after   12 cycles
            NFock= 12  Conv=0.30D-08     -V/T= 2.0065
 KE= 2.237216215413D+02 PE=-7.778519357903D+02 EE= 2.035360510489D+02
 Leave Link  502 at Sat Jun  3 04:40:48 2023, MaxMem=   104857600 cpu:              13.7 elap:              13.8
 (Enter /opt/software/RI/non-eb/apps/binapps/gaussian/g16c01_em64t_haswell/g16/l601.exe)
 Copying SCF densities to generalized density rwf, IOpCl= 0 IROHF=0.

 **********************************************************************

            Population analysis using the SCF Density.

 **********************************************************************

 Alpha  occ. eigenvalues --  -19.11603 -14.37496 -14.33533 -10.32184  -1.10113
 Alpha  occ. eigenvalues --   -0.91976  -0.89822  -0.64095  -0.55767  -0.52292
 Alpha  occ. eigenvalues --   -0.50184  -0.44962  -0.41473  -0.29093  -0.27482
 Alpha  occ. eigenvalues --   -0.26160
 Alpha virt. eigenvalues --   -0.02151   0.02287   0.03526   0.05210   0.06761
 Alpha virt. eigenvalues --    0.06939   0.09038   0.10566   0.12699   0.12940
 Alpha virt. eigenvalues --    0.15005   0.16209   0.19234   0.22334   0.23604
 Alpha virt. eigenvalues --    0.25329   0.26683   0.28193   0.28658   0.32442
 Alpha virt. eigenvalues --    0.33486   0.34908   0.46594   0.51942   0.68638
 Alpha virt. eigenvalues --    0.74656   0.78966   0.82732   0.85702   0.87299
 Alpha virt. eigenvalues --    0.91064   0.92632   0.96373   1.00548   1.07459
 Alpha virt. eigenvalues --    1.11864   1.13312   1.18524   1.24593   1.26913
 Alpha virt. eigenvalues --    1.29173   1.31644   1.37330   1.42253   1.46025
 Alpha virt. eigenvalues --    1.51751   1.55668   1.59156   1.73369   1.79622
 Alpha virt. eigenvalues --    1.85926   1.88632   1.98014   2.07880   2.14136
 Alpha virt. eigenvalues --    2.16679   2.22580   2.30536   2.31755   2.40195
 Alpha virt. eigenvalues --    2.42767   2.47219   2.56395   2.59843   2.66571
 Alpha virt. eigenvalues --    2.69183   2.75617   2.83105   2.93295   2.96680
 Alpha virt. eigenvalues --    3.18174   3.33142   3.36983   3.56662   3.62412
 Alpha virt. eigenvalues --    3.91171   4.17716   4.33771   4.35731   4.57502
          Condensed to atoms (all electrons):
               1          2          3          4          5          6
     1  C    4.456668   0.456142   0.273602   0.260063  -0.002799   0.006764
     2  O    0.456142   8.376035  -0.218011  -0.158457  -0.011137   0.012586
     3  N    0.273602  -0.218011   7.119988  -0.229600   0.010622   0.004433
     4  N    0.260063  -0.158457  -0.229600   7.101760   0.382259   0.308219
     5  H   -0.002799  -0.011137   0.010622   0.382259   0.367779  -0.031602
     6  H    0.006764   0.012586   0.004433   0.308219  -0.031602   0.425749
     7  H   -0.008649  -0.004484   0.344207   0.010084  -0.000094  -0.000071
     8  H   -0.001165   0.016486   0.248216   0.010214   0.000367  -0.001548
               7          8
     1  C   -0.008649  -0.001165
     2  O   -0.004484   0.016486
     3  N    0.344207   0.248216
     4  N    0.010084   0.010214
     5  H   -0.000094   0.000367
     6  H   -0.000071  -0.001548
     7  H    0.345743  -0.011501
     8  H   -0.011501   0.475985
 Mulliken charges:
               1
     1  C    0.559373
     2  O   -0.469160
     3  N   -0.553457
     4  N   -0.684543
     5  H    0.284606
     6  H    0.275470
     7  H    0.324765
     8  H    0.262946
 Sum of Mulliken charges =  -0.00000
 Mulliken charges with hydrogens summed into heavy atoms:
               1
     1  C    0.559373
     2  O   -0.469160
     3  N    0.034255
     4  N   -0.124467
 Electronic spatial extent (au):  <R**2>=           1335.9885
 Charge=             -0.0000 electrons
 Dipole moment (field-independent basis, Debye):
    X=              1.6353    Y=              1.9357    Z=             -2.5551  Tot=              3.5986
 Quadrupole moment (field-independent basis, Debye-Ang):
   XX=            -32.7176   YY=            -19.6672   ZZ=            -23.7680
   XY=             -1.9984   XZ=              8.8154   YZ=              3.0489
 Traceless Quadrupole moment (field-independent basis, Debye-Ang):
   XX=             -7.3333   YY=              5.7170   ZZ=              1.6163
   XY=             -1.9984   XZ=              8.8154   YZ=              3.0489
 Octapole moment (field-independent basis, Debye-Ang**2):
  XXX=            243.8736  YYY=            -56.6547  ZZZ=            -36.1644  XYY=             63.0330
  XXY=            -26.0136  XXZ=            -41.9380  XZZ=             72.9343  YZZ=            -16.3393
  YYZ=              2.5937  XYZ=             -9.6064
 Hexadecapole moment (field-independent basis, Debye-Ang**3):
 XXXX=          -1394.8943 YYYY=           -212.0413 ZZZZ=           -153.2793 XXXY=            207.8317
 XXXZ=            203.6043 YYYX=            155.0487 YYYZ=             -5.5319 ZZZX=            109.3709
 ZZZY=            -32.2418 XXYY=           -245.5396 XXZZ=           -261.0630 YYZZ=            -43.8723
 XXYZ=             14.3394 YYXZ=             -4.1794 ZZXY=             45.3216
 N-N= 1.254180587698D+02 E-N=-7.778519361304D+02  KE= 2.237216215413D+02
 No NMR shielding tensors so no spin-rotation constants.
 Leave Link  601 at Sat Jun  3 04:40:48 2023, MaxMem=   104857600 cpu:               0.1 elap:               0.1
 (Enter /opt/software/RI/non-eb/apps/binapps/gaussian/g16c01_em64t_haswell/g16/l701.exe)
 ... and contract with generalized density number  0.
 Compute integral first derivatives.
 Leave Link  701 at Sat Jun  3 04:40:48 2023, MaxMem=   104857600 cpu:               0.1 elap:               0.1
 (Enter /opt/software/RI/non-eb/apps/binapps/gaussian/g16c01_em64t_haswell/g16/l702.exe)
 L702 exits ... SP integral derivatives will be done elsewhere.
 Leave Link  702 at Sat Jun  3 04:40:48 2023, MaxMem=   104857600 cpu:               0.0 elap:               0.0
 (Enter /opt/software/RI/non-eb/apps/binapps/gaussian/g16c01_em64t_haswell/g16/l703.exe)
 Integral derivatives from FoFJK, PRISM(SPDF).
 Compute integral first derivatives, UseDBF=F ICtDFT=           0.
 Calling FoFJK, ICntrl=      2127 FMM=F ISym2X=0 I1Cent= 0 IOpClX= 0 NMat=1 NMatS=1 NMatT=0.
 FoFJK:  IHMeth= 1 ICntrl=    2127 DoSepK=F KAlg= 0 I1Cent=           0 FoldK=F
 IRaf=         0 NMat=       1 IRICut=       1 DoRegI=T DoRafI=F ISym2E= 0 IDoP0=0 IntGTp=1.
 FoFCou: FMM=F IPFlag=           0 FMFlag=      100000 FMFlg1=         800
         NFxFlg=           0 DoJE=F BraDBF=F KetDBF=F FulRan=T
         wScrn=  0.000000 ICntrl=      2127 IOpCl=  0 I1Cent=           0 NGrid=           0
         NMat0=    1 NMatS0=      1 NMatT0=    0 NMatD0=    1 NMtDS0=    0 NMtDT0=    0
 Symmetry not used in FoFCou.
 Leave Link  703 at Sat Jun  3 04:40:51 2023, MaxMem=   104857600 cpu:               3.4 elap:               3.4
 (Enter /opt/software/RI/non-eb/apps/binapps/gaussian/g16c01_em64t_haswell/g16/l716.exe)
 Dipole        = 6.43387047D-01 7.61564364D-01-1.00526447D+00
 -------------------------------------------------------------------
 Center     Atomic                   Forces (Hartrees/Bohr)
 Number     Number              X              Y              Z
 -------------------------------------------------------------------
      1        6           0.017305853    0.021901263   -0.107595721
      2        8          -0.097837355   -0.101142196    0.146087436
      3        7           0.085685112   -0.011765826   -0.163930196
      4        7           0.191734417    0.158928181    0.050818521
      5        1          -0.188307153   -0.143569509   -0.008692425
      6        1           0.021564461    0.022252399   -0.013711319
      7        1           0.005339212    0.008889494    0.021468187
      8        1          -0.035484547    0.044506194    0.075555517
 -------------------------------------------------------------------
 Cartesian Forces:  Max     0.191734417 RMS     0.095583347
 Z-matrix is all fixed cartesians, so copy forces.
 Force constants in Cartesian coordinates:
                1             2             3             4             5
      1  0.597787D+00
      2  0.581387D+00  0.102636D+01
      3 -0.418853D+00 -0.311602D+00  0.140977D+01
      4 -0.317194D+00 -0.309314D+00  0.441812D+00  0.294235D+00
      5 -0.308708D+00 -0.428236D+00  0.482041D+00  0.311696D+00  0.401817D+00
      6  0.443813D+00  0.484099D+00 -0.938003D+00 -0.454514D+00 -0.499216D+00
      7 -0.213481D+00 -0.205015D+00 -0.108728D-01  0.126162D-01 -0.165799D-01
      8 -0.201903D+00 -0.459397D+00 -0.690210D-01 -0.107199D-01  0.344267D-02
      9 -0.163787D-01 -0.797635D-01 -0.201573D+00  0.183860D-01  0.300098D-01
     10 -0.115550D+00 -0.618018D-01 -0.540768D-02  0.126770D-01  0.122031D-01
     11 -0.550021D-01 -0.172269D+00 -0.841703D-01  0.646983D-02  0.240955D-01
     12  0.880052D-02 -0.769131D-01 -0.304514D+00 -0.483454D-02 -0.133443D-01
     13  0.125741D-01  0.306172D-03 -0.182293D-02 -0.104365D-02  0.640679D-03
     14 -0.989345D-02  0.379404D-02 -0.528230D-03  0.152120D-02 -0.933839D-03
     15 -0.262355D-01 -0.166535D-01  0.115928D-01 -0.600943D-03  0.368910D-03
     16  0.167186D-01  0.520282D-02 -0.475635D-02  0.143899D-02 -0.883376D-03
     17  0.102473D-01  0.195127D-01 -0.108549D-01 -0.132936D-02  0.816071D-03
     18  0.956350D-02  0.569370D-02 -0.404253D-02  0.455002D-03 -0.279319D-03
     19  0.222326D-01 -0.100514D-01 -0.125828D-01 -0.622884D-02  0.372358D-02
     20  0.725187D-03  0.422385D-02 -0.235736D-01  0.422496D-02 -0.252567D-02
     21  0.230704D-03 -0.378390D-02  0.185945D-01 -0.364434D-02  0.217857D-02
     22 -0.308707D-02 -0.714115D-03  0.124836D-01  0.349927D-02 -0.209185D-02
     23 -0.168517D-01  0.601286D-02  0.177093D-01 -0.254926D-02  0.152394D-02
     24 -0.940440D-03 -0.107615D-02  0.817236D-02  0.294167D-02 -0.175852D-02
                6             7             8             9            10
      6  0.920379D+00
      7 -0.340414D-02  0.440719D+00
      8 -0.372416D-02  0.250750D+00  0.787056D+00
      9  0.287103D-01 -0.108308D+00  0.304294D+00  0.684952D+00
     10  0.145195D-01  0.102453D-01 -0.229690D-02 -0.176812D-01  0.795374D+00
     11  0.185159D-01  0.171825D-02  0.408806D-02 -0.257293D-01  0.487771D+00
     12 -0.109388D-01 -0.219971D-02 -0.168258D-02  0.148683D-01 -0.610917D-01
     13 -0.172674D-03  0.992921D-03 -0.589719D-03  0.154641D-03 -0.557169D+00
     14  0.251685D-03 -0.144726D-02  0.859561D-03 -0.225401D-03 -0.376386D+00
     15 -0.994274D-04  0.571735D-03 -0.339567D-03  0.890439D-04 -0.872804D-01
     16  0.238085D-03 -0.136905D-02  0.813112D-03 -0.213221D-03 -0.147828D+00
     17 -0.219945D-03  0.126474D-02 -0.751160D-03  0.196975D-03 -0.581074D-01
     18  0.752811D-04 -0.432887D-03  0.257102D-03 -0.674193D-04  0.156362D+00
     19 -0.109287D-02 -0.113151D+00 -0.236642D-01  0.249691D-01  0.513888D-02
     20  0.741279D-03 -0.196787D-01 -0.261690D+00 -0.200757D+00 -0.348565D-02
     21 -0.639407D-03  0.306144D-01 -0.204326D+00 -0.350160D+00  0.300663D-02
     22  0.613956D-03 -0.136572D+00 -0.123885D-01  0.990709D-01 -0.288695D-02
     23 -0.447274D-03 -0.110120D-01 -0.736083D-01 -0.280256D-01  0.210318D-02
     24  0.516123D-03  0.940310D-01 -0.254575D-01 -0.176819D+00 -0.242692D-02
               11            12            13            14            15
     11  0.569618D+00
     12  0.146325D+00  0.904124D+00
     13 -0.380714D+00 -0.703335D-01  0.547243D+00
     14 -0.336957D+00 -0.822215D-01  0.392407D+00  0.324451D+00
     15 -0.954522D-01 -0.167969D+00  0.754011D-01  0.841755D-01  0.133814D+00
     16 -0.589056D-01  0.129308D+00 -0.259705D-02 -0.620186D-02  0.381440D-01
     17 -0.893965D-01  0.280516D-01 -0.120502D-01  0.878615D-02  0.279008D-01
     18  0.408552D-01 -0.435660D+00 -0.322667D-02 -0.145211D-02  0.225721D-01
     19 -0.305210D-02  0.800347D-03  0.000000D+00  0.000000D+00  0.000000D+00
     20  0.207021D-02 -0.542867D-03  0.000000D+00  0.000000D+00  0.000000D+00
     21 -0.178571D-02  0.468262D-03  0.000000D+00  0.000000D+00  0.000000D+00
     22  0.171463D-02 -0.449623D-03  0.000000D+00  0.000000D+00  0.000000D+00
     23 -0.124913D-02  0.327556D-03  0.000000D+00  0.000000D+00  0.000000D+00
     24  0.144140D-02 -0.377977D-03  0.000000D+00  0.000000D+00  0.000000D+00
               16            17            18            19            20
     16  0.133637D+00
     17  0.599749D-01  0.610327D-01
     18 -0.162721D+00 -0.450745D-01  0.417123D+00
     19  0.000000D+00  0.000000D+00  0.000000D+00  0.714814D-01
     20  0.000000D+00  0.000000D+00  0.000000D+00  0.124065D-01  0.240385D+00
     21  0.000000D+00  0.000000D+00  0.000000D+00 -0.262668D-01  0.221135D+00
     22  0.000000D+00  0.000000D+00  0.000000D+00  0.205273D-01  0.580768D-02
     23  0.000000D+00  0.000000D+00  0.000000D+00  0.206376D-01  0.175367D-01
     24  0.000000D+00  0.000000D+00  0.000000D+00  0.141730D-01  0.299649D-02
               21            22            23            24
     21  0.333638D+00
     22 -0.394064D-02  0.118519D+00
     23 -0.134183D-01  0.767216D-02  0.497839D-01
     24 -0.190156D-02 -0.107778D+00  0.238543D-01  0.170410D+00
 Leave Link  716 at Sat Jun  3 04:40:51 2023, MaxMem=   104857600 cpu:               0.1 elap:               0.1
 (Enter /opt/software/RI/non-eb/apps/binapps/gaussian/g16c01_em64t_haswell/g16/l103.exe)

 GradGradGradGradGradGradGradGradGradGradGradGradGradGradGradGradGradGrad
 Berny optimization.
 Search for a local minimum.
 Step number   1 out of a maximum of    2
 All quantities printed in internal units (Hartrees-Bohrs-Radians)
 Second derivative matrix not updated -- first step.
 ITU=  0
     Eigenvalues ---    0.00755   0.01837   0.02274   0.05667   0.07464
     Eigenvalues ---    0.09438   0.10321   0.14807   0.19701   0.24238
     Eigenvalues ---    0.30100   0.32044   0.60251   0.89820   1.21114
     Eigenvalues ---    1.63313   1.81146   3.22597
 Quadratic step=1.373D+00 exceeds max=3.000D-01 adjusted using Lamda=-4.015D-01.
 Angle between NR and scaled steps=  53.20 degrees.
 Angle between quadratic step and forces=  31.97 degrees.
 Linear search not attempted -- first point.
 B after Tr=    -0.002887   -0.024395    0.013567
         Rot=    0.999997    0.001263    0.001268    0.001744 Ang=   0.29 deg.
 Variable       Old X    -DE/DX   Delta X   Delta X   Delta X     New X
                                 (Linear)    (Quad)   (Total)
    X1       -5.54257   0.01731   0.00000  -0.02778  -0.02709  -5.56965
    Y1        1.75178   0.02190   0.00000  -0.02357  -0.02607   1.72571
    Z1        0.98644  -0.10760   0.00000   0.00204  -0.00291   0.98353
    X2       -6.44397  -0.09784   0.00000  -0.07088  -0.07830  -6.52227
    Y2        0.72754  -0.10114   0.00000  -0.07393  -0.06875   0.65879
    Z2        2.63428   0.14609   0.00000   0.08114   0.07649   2.71077
    X3       -4.32369   0.08569   0.00000   0.05578   0.06338  -4.26032
    Y3        3.91551  -0.01177   0.00000   0.00185  -0.00448   3.91103
    Z3        1.41163  -0.16393   0.00000  -0.13516  -0.14232   1.26930
    X4       -5.87516   0.19173   0.00000   0.06631   0.06938  -5.80578
    Y4        0.53668   0.15893   0.00000   0.07257   0.06464   0.60132
    Z4       -1.51178   0.05082   0.00000   0.01984   0.01713  -1.49465
    X5       -7.14505  -0.18831   0.00000  -0.09843  -0.09866  -7.24371
    Y5       -0.43086  -0.14357   0.00000  -0.07698  -0.08048  -0.51134
    Z5       -1.75556  -0.00869   0.00000   0.03217   0.02862  -1.72693
    X6       -5.09092   0.02156   0.00000   0.04414   0.05246  -5.03846
    Y6        0.81447   0.02225   0.00000   0.07016   0.05528   0.86975
    Z6       -3.18041  -0.01371   0.00000  -0.01061  -0.01207  -3.19248
    X7       -4.37661   0.00534   0.00000   0.02070   0.02837  -4.34824
    Y7        5.07958   0.00889   0.00000  -0.01908  -0.02119   5.05840
    Z7        2.85160   0.02147   0.00000  -0.02529  -0.03557   2.81603
    X8       -2.94986  -0.03548   0.00000  -0.02087  -0.00954  -2.95941
    Y8        3.76244   0.04451   0.00000   0.09584   0.08105   3.84350
    Z8       -0.35527   0.07556   0.00000   0.07433   0.07063  -0.28464
         Item               Value     Threshold  Converged?
 Maximum Force            0.191734     0.000450     NO
 RMS     Force            0.095583     0.000300     NO
 Maximum Displacement     0.142321     0.001800     NO
 RMS     Displacement     0.060848     0.001200     NO
 Predicted change in Energy=-7.768914D-02
 GradGradGradGradGradGradGradGradGradGradGradGradGradGradGradGradGradGrad

 Leave Link  103 at Sat Jun  3 04:40:51 2023, MaxMem=   104857600 cpu:               0.0 elap:               0.0
 (Enter /opt/software/RI/non-eb/apps/binapps/gaussian/g16c01_em64t_haswell/g16/l9999.exe)
 Unable to Open any file for archive entry.
 1\1\GINC-NODE040\Force\RB3LYP\6-31+G(d,p)\C1H4N2O1\MBDXWYM4\03-Jun-202
 3\0\\#p b3lyp/6-31+g(d,p) nosymm output=wfn force geom=notest\\10k_ran
 dom_sample_set_5000K05000\\0,1\C,-2.933,0.927,0.522\O,-3.41,0.385,1.39
 4\N,-2.288,2.072,0.747\N,-3.109,0.284,-0.8\H,-3.781,-0.228,-0.929\H,-2
 .694,0.431,-1.683\H,-2.316,2.688,1.509\H,-1.561,1.991,-0.188\\Version=
 ES64L-G16RevC.01\HF=-225.1762044\RMSD=3.021e-09\RMSF=9.558e-02\Dipole=
 0.643387,0.7615644,-1.0052645\Quadrupole=-5.4521379,4.2504747,1.201663
 3,-1.4857347,6.554054,2.2667634\PG=C01 [X(C1H4N2O1)]\\@
 The archive entry for this job was punched.

 Writing a WFN file to "/gpfs01/scratch/mbdxwym4/urea_631g_sample_set_5000K/10k_random_sample_set_5000K_PARENT/10k_random_sample_set_5000K1/10k_random_sample_set_5000K05000/10k_random_sample_set_5000K05000.wfn"


 IT IS IMPOSSIBLE TO MEDITATE ON TIME AND THE MYSTERY
 OF NATURE WITHOUT AN OVERWHELMING EMOTION AT THE
 LIMITATIONS OF HUMAN INTELLIGENCE.

                                         -- ALFRED NORTH WHITEHEAD
 Job cpu time:       0 days  0 hours  0 minutes 19.2 seconds.
 Elapsed time:       0 days  0 hours  0 minutes 19.4 seconds.
 File lengths (MBytes):  RWF=     72 Int=      0 D2E=      0 Chk=      8 Scr=      8
 Normal termination of Gaussian 16 at Sat Jun  3 04:40:52 2023.
