 WATER_MONOMER0003
GAUSSIAN              5 MOL ORBITALS    126 PRIMITIVES        3 NUCLEI   B3LYP
  O    1    (CENTRE  1)   0.46536991  0.52105833  0.42415440  CHARGE =  8.0
  H    2    (CENTRE  2)  -1.24674383 -0.06470356  0.62642717  CHARGE =  1.0
  H    3    (CENTRE  3)   0.78137390 -0.45635476 -1.05058157  CHARGE =  1.0
CENTRE ASSIGNMENTS    1  1  1  1  1  1  1  1  1  1  1  1  1  1  1  1  1  1  1  1
CENTRE ASSIGNMENTS    1  1  1  1  1  1  1  1  1  1  1  1  1  1  1  1  1  1  1  1
CENTRE ASSIGNMENTS    1  1  1  1  1  1  1  1  1  1  1  1  1  1  1  1  1  1  1  1
CENTRE ASSIGNMENTS    1  1  1  1  1  1  1  1  1  1  1  1  2  2  2  2  2  2  2  2
CENTRE ASSIGNMENTS    2  2  2  2  2  2  2  2  2  2  2  2  2  2  2  2  2  2  2  3
CENTRE ASSIGNMENTS    3  3  3  3  3  3  3  3  3  3  3  3  3  3  3  3  3  3  3  3
CENTRE ASSIGNMENTS    3  3  3  3  3  3
TYPE ASSIGNMENTS      1  1  1  1  1  1  1  1  1  1  1  1  1  1  1  1  2  2  2  3
TYPE ASSIGNMENTS      3  3  4  4  4  2  3  4  2  3  4  2  3  4  5  6  7  8  9 10
TYPE ASSIGNMENTS      5  6  7  8  9 10  5  6  7  8  9 10 11 12 13 17 14 15 18 19
TYPE ASSIGNMENTS     16 20 11 12 13 17 14 15 18 19 16 20  1  1  1  1  1  1  2  3
TYPE ASSIGNMENTS      4  2  3  4  2  3  4  5  6  7  8  9 10  5  6  7  8  9 10  1
TYPE ASSIGNMENTS      1  1  1  1  1  2  3  4  2  3  4  2  3  4  5  6  7  8  9 10
TYPE ASSIGNMENTS      5  6  7  8  9 10
EXPONENTS  0.1533000D+05 0.2299000D+04 0.5224000D+03 0.1473000D+03 0.4755000D+02
EXPONENTS  0.1676000D+02 0.6207000D+01 0.5224000D+03 0.1473000D+03 0.4755000D+02
EXPONENTS  0.1676000D+02 0.6207000D+01 0.6882000D+00 0.1752000D+01 0.2384000D+00
EXPONENTS  0.7376000D-01 0.3446000D+02 0.7749000D+01 0.2280000D+01 0.3446000D+02
EXPONENTS  0.7749000D+01 0.2280000D+01 0.3446000D+02 0.7749000D+01 0.2280000D+01
EXPONENTS  0.7156000D+00 0.7156000D+00 0.7156000D+00 0.2140000D+00 0.2140000D+00
EXPONENTS  0.2140000D+00 0.5974000D-01 0.5974000D-01 0.5974000D-01 0.2314000D+01
EXPONENTS  0.2314000D+01 0.2314000D+01 0.2314000D+01 0.2314000D+01 0.2314000D+01
EXPONENTS  0.6450000D+00 0.6450000D+00 0.6450000D+00 0.6450000D+00 0.6450000D+00
EXPONENTS  0.6450000D+00 0.2140000D+00 0.2140000D+00 0.2140000D+00 0.2140000D+00
EXPONENTS  0.2140000D+00 0.2140000D+00 0.1428000D+01 0.1428000D+01 0.1428000D+01
EXPONENTS  0.1428000D+01 0.1428000D+01 0.1428000D+01 0.1428000D+01 0.1428000D+01
EXPONENTS  0.1428000D+01 0.1428000D+01 0.5000000D+00 0.5000000D+00 0.5000000D+00
EXPONENTS  0.5000000D+00 0.5000000D+00 0.5000000D+00 0.5000000D+00 0.5000000D+00
EXPONENTS  0.5000000D+00 0.5000000D+00 0.3387000D+02 0.5095000D+01 0.1159000D+01
EXPONENTS  0.3258000D+00 0.1027000D+00 0.2526000D-01 0.1407000D+01 0.1407000D+01
EXPONENTS  0.1407000D+01 0.3880000D+00 0.3880000D+00 0.3880000D+00 0.1020000D+00
EXPONENTS  0.1020000D+00 0.1020000D+00 0.1057000D+01 0.1057000D+01 0.1057000D+01
EXPONENTS  0.1057000D+01 0.1057000D+01 0.1057000D+01 0.2470000D+00 0.2470000D+00
EXPONENTS  0.2470000D+00 0.2470000D+00 0.2470000D+00 0.2470000D+00 0.3387000D+02
EXPONENTS  0.5095000D+01 0.1159000D+01 0.3258000D+00 0.1027000D+00 0.2526000D-01
EXPONENTS  0.1407000D+01 0.1407000D+01 0.1407000D+01 0.3880000D+00 0.3880000D+00
EXPONENTS  0.3880000D+00 0.1020000D+00 0.1020000D+00 0.1020000D+00 0.1057000D+01
EXPONENTS  0.1057000D+01 0.1057000D+01 0.1057000D+01 0.1057000D+01 0.1057000D+01
EXPONENTS  0.2470000D+00 0.2470000D+00 0.2470000D+00 0.2470000D+00 0.2470000D+00
EXPONENTS  0.2470000D+00
MO    1     MO 0.0        OCC NO =    2.0000000  ORB. ENERGY =  -19.142947
  0.49679651D+00  0.92594700D+00  0.15700733D+01  0.23761389D+01  0.29640460D+01
  0.25435925D+01  0.97406079D+00  0.29939774D-04  0.32123413D-03  0.11841295D-02
  0.34623251D-02  0.41722701D-02 -0.50259415D-02  0.55472054D-01  0.21331127D-02
  0.22285431D-03 -0.40711259D-02 -0.39476227D-02 -0.26630429D-02 -0.45782086D-02
 -0.44393223D-02 -0.29947406D-02 -0.37366761D-02 -0.36233188D-02 -0.24442695D-02
 -0.43877355D-03 -0.78074353D-03 -0.78324526D-03 -0.71767576D-04 -0.17658381D-03
 -0.19283943D-03 -0.27450868D-05 -0.63800592D-05 -0.68804239D-05  0.89989266D-03
 -0.11210229D-02  0.22113026D-03  0.14920373D-02 -0.22497643D-02  0.35908296D-02
 -0.74240175D-04  0.23132300D-04  0.51107875D-04 -0.42223251D-04  0.25939173D-04
  0.92329492D-04 -0.19850007D-04  0.15965279D-04  0.38847274D-05 -0.14190202D-04
  0.33900990D-04 -0.19195837D-04 -0.72686533D-03  0.64087290D-03 -0.27176776D-03
  0.65494241D-03 -0.58447592D-03  0.13598900D-02  0.15256536D-02 -0.13381428D-02
 -0.54458672D-03  0.15144547D-02  0.14559307D-03 -0.13278885D-03  0.48947969D-04
 -0.12564766D-03  0.15157078D-03 -0.26065429D-03 -0.31113155D-03  0.24679578D-03
  0.11381039D-03 -0.26038216D-03  0.18581991D-03  0.33513386D-03  0.49415468D-03
 -0.60513099D-03 -0.22392470D-03 -0.62169526D-06 -0.32935277D-03 -0.10841705D-03
  0.44561525D-04 -0.70697322D-03 -0.21508869D-03  0.11900592D-03 -0.59363235D-04
 -0.22137742D-04  0.45933250D-05 -0.15879852D-02  0.62337097D-03  0.96461421D-03
 -0.17579705D-02  0.48074984D-03  0.34937431D-03 -0.26502996D-04  0.11213007D-04
  0.15289989D-04 -0.21946219D-04  0.14256597D-04  0.12005480D-04  0.19141232D-03
  0.34522000D-03  0.50902669D-03 -0.10136517D-02 -0.37417621D-03 -0.54586975D-05
  0.11334603D-03 -0.35672901D-03 -0.53710413D-03  0.23781445D-03 -0.55103202D-03
 -0.86547231D-03  0.19638145D-04 -0.50267875D-04 -0.77778453D-04  0.10818005D-02
  0.74012466D-04 -0.11558130D-02  0.69948944D-03  0.86437805D-03 -0.29250791D-02
  0.19569352D-04  0.46048423D-05 -0.24174194D-04  0.22452862D-04  0.30286730D-04
 -0.53743252D-04
MO    2     MO 0.0        OCC NO =    2.0000000  ORB. ENERGY =   -1.030527
 -0.10430615D+00 -0.19440951D+00 -0.32964864D+00 -0.49888816D+00 -0.62232365D+00
 -0.53404628D+00 -0.20451135D+00 -0.16036966D-02 -0.17206612D-01 -0.63426811D-01
 -0.18545627D+00 -0.22348383D+00  0.26920995D+00  0.15316279D+00  0.65613590D-01
  0.32241452D-02 -0.18898196D+00 -0.18324893D+00 -0.12361865D+00 -0.22206410D+00
 -0.21532748D+00 -0.14525864D+00 -0.18609946D+00 -0.18045387D+00 -0.12173312D+00
 -0.42987042D-01 -0.49569920D-01 -0.41084278D-01 -0.22532787D-02 -0.23281187D-02
 -0.17952666D-02 -0.59979999D-04 -0.64522538D-04 -0.51165623D-04  0.92644503D-02
 -0.99659683D-02  0.70151793D-03  0.22486829D-01 -0.14837018D-01  0.39654174D-01
  0.20517810D-02 -0.18124768D-02 -0.23930427D-03  0.60959319D-02 -0.15517927D-02
  0.85940590D-02 -0.96516921D-04  0.15655902D-03 -0.60042099D-04 -0.27922433D-04
  0.41583777D-03 -0.36415678D-03 -0.30595731D-02  0.36656514D-02 -0.60335325D-03
  0.19041922D-02 -0.47700646D-02  0.56266708D-02  0.72745272D-02 -0.62268897D-02
 -0.38166111D-02  0.24144916D-02  0.24324397D-03 -0.44742179D-04  0.17217674D-03
 -0.36416401D-03 -0.95419649D-04 -0.42435101D-03 -0.36556791D-03  0.22964619D-03
 -0.92179203D-04 -0.10767382D-02  0.24390906D-01  0.43990004D-01  0.64863235D-01
  0.24691906D-01 -0.13174383D-02 -0.63257286D-04  0.28840237D-01  0.83526835D-02
 -0.54124782D-02  0.47452082D-02  0.13387141D-02 -0.93769477D-03 -0.42446107D-03
 -0.14069283D-03  0.56152621D-04  0.53338170D-02 -0.25544843D-02 -0.27793327D-02
  0.51924714D-02 -0.33295721D-02 -0.19741600D-03 -0.13410535D-03  0.61165526D-04
  0.72939826D-04 -0.11456769D-03  0.83618217D-04  0.37592752D-04  0.25301982D-01
  0.45633166D-01  0.67286077D-01  0.26165712D-01 -0.12410641D-02 -0.64269117D-04
 -0.79726007D-02  0.16533854D-01  0.26447277D-01 -0.13930991D-02  0.27090699D-02
  0.43833184D-02  0.82227065D-04 -0.24563897D-03 -0.37222104D-03 -0.26139548D-02
 -0.85263527D-03  0.34665900D-02 -0.21469879D-02 -0.42910032D-02  0.92466835D-02
  0.87123448D-04  0.14715041D-04 -0.10183849D-03  0.76060789D-04  0.10509394D-03
 -0.24647101D-03
MO    3     MO 0.0        OCC NO =    2.0000000  ORB. ENERGY =   -0.521102
  0.68375286D-03  0.12744029D-02  0.21609292D-02  0.32703366D-02  0.40794871D-02
  0.35008069D-02  0.13406230D-02  0.13733647D-04  0.14735302D-03  0.54317098D-03
  0.15882001D-02  0.19138583D-02 -0.23054452D-02 -0.10972383D-02 -0.22938210D-02
 -0.20631270D-03  0.11303122D+01  0.10960226D+01  0.73937040D+00 -0.23488813D+00
 -0.22776247D+00 -0.15364722D+00 -0.95663122D+00 -0.92761049D+00 -0.62576056D+00
  0.23576851D+00 -0.48325675D-01 -0.19865504D+00  0.24980594D-01 -0.48183969D-02
 -0.20648506D-01  0.37208918D-03 -0.71181680D-04 -0.30679088D-03 -0.60245554D-01
  0.13429298D-01  0.46816256D-01 -0.56210955D-01 -0.60453743D-02  0.68681848D-01
 -0.80367556D-02  0.18887107D-02  0.61480449D-02 -0.74616264D-02 -0.50382947D-03
  0.88095570D-02  0.45169922D-03 -0.82944639D-04 -0.36875458D-03  0.39833829D-03
  0.85204893D-04 -0.61769636D-03  0.82278033D-03  0.13196851D-02  0.19646699D-02
 -0.75403016D-02  0.32601726D-02 -0.97230419D-02  0.50719606D-02 -0.72192277D-02
  0.38290320D-02  0.80562176D-02  0.15465445D-03 -0.13188053D-04  0.39480273D-04
 -0.26021638D-03  0.66799027D-03 -0.52990464D-04 -0.20374697D-03 -0.62842611D-03
 -0.65450354D-04  0.17592610D-03 -0.36577865D-01 -0.65969686D-01 -0.97272264D-01
 -0.67149966D-01 -0.79656894D-02  0.17389316D-03 -0.29005941D-01 -0.16935981D-01
 -0.58584095D-02 -0.11973086D-01 -0.70223683D-02 -0.24610180D-02 -0.52866672D-04
 -0.26159354D-03 -0.31622446D-03 -0.10336798D-01  0.33317098D-02  0.70050884D-02
 -0.15850492D-01 -0.12954678D-02 -0.40588086D-03 -0.23853737D-03  0.18653694D-04
  0.21988368D-03 -0.48841993D-03 -0.26474323D-03  0.73959673D-04  0.37020309D-01
  0.66767652D-01  0.98448864D-01  0.69046091D-01  0.80346941D-02 -0.16944062D-03
  0.51130928D-02  0.22540354D-01  0.26927014D-01  0.20627401D-02  0.91948482D-02
  0.10998322D-01  0.36325741D-03  0.17591785D-03  0.25439422D-04 -0.72672188D-02
  0.56223453D-03  0.67049843D-02 -0.46580774D-03 -0.50288846D-03  0.20733749D-01
 -0.24187294D-03  0.10648917D-03  0.13538377D-03  0.35465684D-04  0.26547562D-03
  0.39555209D-03
MO    4     MO 0.0        OCC NO =    2.0000000  ORB. ENERGY =   -0.422541
 -0.40229638D-01 -0.74981431D-01 -0.12714155D+00 -0.19241522D+00 -0.24002282D+00
 -0.20597529D+00 -0.78877594D-01 -0.68213812D-03 -0.73188944D-02 -0.26978823D-01
 -0.78884495D-01 -0.95059652D-01  0.11450942D+00  0.65921589D-01  0.82324157D-01
  0.11153781D-01  0.88148127D+00  0.85474031D+00  0.57660277D+00  0.98887895D+00
  0.95887994D+00  0.64685474D+00  0.80592949D+00  0.78148051D+00  0.52718214D+00
  0.18953548D+00  0.21207357D+00  0.17255722D+00  0.24237001D-01  0.26868254D-01
  0.21732643D-01  0.51863205D-03  0.57733234D-03  0.46812527D-03 -0.50094161D-02
  0.18156085D-02  0.31938076D-02 -0.52768692D-01 -0.23659433D-01 -0.58919381D-01
  0.87601175D-03 -0.21968668D-02  0.13208550D-02 -0.12731215D-01 -0.12841261D-01
 -0.10177468D-01  0.27295041D-03 -0.36141024D-03  0.88459838D-04  0.11164457D-03
 -0.92248804D-03  0.73792175D-03  0.10777334D-02 -0.50226900D-02 -0.14241763D-02
  0.22614876D-02  0.73119046D-02 -0.34252236D-02 -0.54946877D-02  0.77561653D-02
  0.76977526D-02  0.11260631D-01 -0.34839928D-03 -0.29564196D-05 -0.26911371D-03
  0.57507845D-03  0.17330133D-03  0.56182721D-03  0.47011940D-03 -0.16443208D-03
  0.24551392D-03  0.16831221D-02 -0.23687389D-01 -0.42721182D-01 -0.62992358D-01
 -0.52501505D-01 -0.89379883D-02 -0.12945246D-03 -0.15312739D-01  0.42393493D-02
  0.14359385D-01 -0.92581462D-02  0.14692955D-02  0.72337490D-02  0.11246545D-03
  0.39831169D-03  0.46332575D-03 -0.59202027D-02  0.39356904D-02  0.19845123D-02
 -0.16681969D-02  0.90472763D-02  0.95969195D-03  0.42417531D-04  0.28617375D-04
 -0.71034905D-04  0.19685226D-03  0.19690231D-03 -0.19310313D-05 -0.23304624D-01
 -0.42030849D-01 -0.61974462D-01 -0.52324332D-01 -0.86555082D-02 -0.13143833D-03
  0.17731448D-01 -0.21595099D-02 -0.12987611D-01  0.88436826D-02 -0.19577575D-02
 -0.76446003D-02  0.51167256D-03  0.34975934D-03  0.17092550D-03  0.84718152D-03
  0.24609120D-02 -0.33080935D-02  0.47991549D-02  0.99040985D-02 -0.66954856D-02
 -0.13175492D-03  0.57182280D-04  0.74572641D-04  0.49939135D-04  0.15955925D-03
  0.25818808D-03
MO    5     MO 0.0        OCC NO =    2.0000000  ORB. ENERGY =   -0.329772
 -0.15698863D-06 -0.29260098D-06 -0.49614609D-06 -0.75086435D-06 -0.93664409D-06
 -0.80377998D-06 -0.30780503D-06 -0.82032872D-08 -0.88015888D-07 -0.32444314D-06
 -0.94865270D-06 -0.11431726D-05  0.13770726D-05  0.11255417D-05 -0.57897445D-05
 -0.10519483D-05 -0.58173368D+00 -0.56408599D+00 -0.38052908D+00  0.13486011D+01
  0.13076895D+01  0.88215958D+00 -0.10184805D+01 -0.98758351D+00 -0.66621800D+00
 -0.13104426D+00  0.30379737D+00 -0.22942974D+00 -0.22259165D-01  0.51615236D-01
 -0.38975757D-01 -0.82243578D-03  0.19073188D-02 -0.14401307D-02  0.13164012D-01
 -0.35293474D-01  0.22129462D-01 -0.15289542D-01  0.35684173D-01 -0.26472602D-02
  0.36639623D-02 -0.95804345D-02  0.59164722D-02 -0.43644127D-02  0.97960475D-02
 -0.59935967D-03  0.10974489D-03 -0.25936977D-03  0.14962488D-03 -0.14437885D-03
  0.27782923D-03 -0.25890074D-05 -0.45490684D-02 -0.50006698D-04 -0.44770441D-02
  0.83399985D-02  0.69591735D-02 -0.34731582D-02  0.53072068D-02 -0.68091534D-02
  0.16904291D-01 -0.23975101D-01 -0.15161285D-03  0.30505583D-04 -0.93531224D-04
  0.40708169D-03  0.17078817D-03 -0.20757266D-03  0.47756859D-04 -0.26230492D-03
  0.48816633D-03 -0.67199535D-03  0.29606258D-06  0.53396105D-06  0.78732525D-06
  0.10034499D-04  0.27034234D-06 -0.31970567D-07 -0.81202209D-02  0.18830382D-01
 -0.14220101D-01 -0.40309814D-02  0.93514129D-02 -0.70641239D-02 -0.48959717D-03
  0.11330385D-02 -0.85604320D-03 -0.45246617D-02  0.33352753D-02  0.11893863D-02
  0.90536565D-02 -0.72458120D-02 -0.40948028D-02 -0.42339334D-03  0.27717216D-03
  0.14622118D-03  0.86130203D-03 -0.65700934D-03 -0.40245251D-03  0.21156620D-06
  0.38156835D-06  0.56262231D-06  0.60973530D-05 -0.24260054D-06 -0.35045975D-07
 -0.83561391D-02  0.19371701D-01 -0.14628283D-01 -0.41489983D-02  0.96167858D-02
 -0.72602719D-02 -0.50242896D-03  0.11646458D-02 -0.88029185D-03  0.10241912D-02
  0.60410927D-02 -0.70652840D-02 -0.49805840D-02 -0.22429001D-02  0.47950145D-02
  0.11961143D-03  0.55223245D-03 -0.67184388D-03 -0.51530014D-03 -0.17410022D-03
  0.47246120D-03
END DATA
 TOTAL ENERGY =      -76.469939778037 THE VIRIAL(-V/T)=   2.00564372
