 WATER_MONOMER0001
GAUSSIAN              5 MOL ORBITALS    126 PRIMITIVES        3 NUCLEI
  O    1    (CENTRE  1)  -0.06328188 -0.88230871 -0.00802954  CHARGE =  8.0
  H    2    (CENTRE  2)  -0.95295537  0.38291891  1.07137738  CHARGE =  1.0
  H    3    (CENTRE  3)   1.01623725  0.49938980 -1.06334784  CHARGE =  1.0
CENTRE ASSIGNMENTS    1  1  1  1  1  1  1  1  1  1  1  1  1  1  1  1  1  1  1  1
CENTRE ASSIGNMENTS    1  1  1  1  1  1  1  1  1  1  1  1  1  1  1  1  1  1  1  1
CENTRE ASSIGNMENTS    1  1  1  1  1  1  1  1  1  1  1  1  1  1  1  1  1  1  1  1
CENTRE ASSIGNMENTS    1  1  1  1  1  1  1  1  1  1  1  1  2  2  2  2  2  2  2  2
CENTRE ASSIGNMENTS    2  2  2  2  2  2  2  2  2  2  2  2  2  2  2  2  2  2  2  3
CENTRE ASSIGNMENTS    3  3  3  3  3  3  3  3  3  3  3  3  3  3  3  3  3  3  3  3
CENTRE ASSIGNMENTS    3  3  3  3  3  3
TYPE ASSIGNMENTS      1  1  1  1  1  1  1  1  1  1  1  1  1  1  1  1  2  2  2  3
TYPE ASSIGNMENTS      3  3  4  4  4  2  3  4  2  3  4  2  3  4  5  6  7  8  9 10
TYPE ASSIGNMENTS      5  6  7  8  9 10  5  6  7  8  9 10 11 12 13 17 14 15 18 19
TYPE ASSIGNMENTS     16 20 11 12 13 17 14 15 18 19 16 20  1  1  1  1  1  1  2  3
TYPE ASSIGNMENTS      4  2  3  4  2  3  4  5  6  7  8  9 10  5  6  7  8  9 10  1
TYPE ASSIGNMENTS      1  1  1  1  1  2  3  4  2  3  4  2  3  4  5  6  7  8  9 10
TYPE ASSIGNMENTS      5  6  7  8  9 10
EXPONENTS  0.1533000D+05 0.2299000D+04 0.5224000D+03 0.1473000D+03 0.4755000D+02
EXPONENTS  0.1676000D+02 0.6207000D+01 0.5224000D+03 0.1473000D+03 0.4755000D+02
EXPONENTS  0.1676000D+02 0.6207000D+01 0.6882000D+00 0.1752000D+01 0.2384000D+00
EXPONENTS  0.7376000D-01 0.3446000D+02 0.7749000D+01 0.2280000D+01 0.3446000D+02
EXPONENTS  0.7749000D+01 0.2280000D+01 0.3446000D+02 0.7749000D+01 0.2280000D+01
EXPONENTS  0.7156000D+00 0.7156000D+00 0.7156000D+00 0.2140000D+00 0.2140000D+00
EXPONENTS  0.2140000D+00 0.5974000D-01 0.5974000D-01 0.5974000D-01 0.2314000D+01
EXPONENTS  0.2314000D+01 0.2314000D+01 0.2314000D+01 0.2314000D+01 0.2314000D+01
EXPONENTS  0.6450000D+00 0.6450000D+00 0.6450000D+00 0.6450000D+00 0.6450000D+00
EXPONENTS  0.6450000D+00 0.2140000D+00 0.2140000D+00 0.2140000D+00 0.2140000D+00
EXPONENTS  0.2140000D+00 0.2140000D+00 0.1428000D+01 0.1428000D+01 0.1428000D+01
EXPONENTS  0.1428000D+01 0.1428000D+01 0.1428000D+01 0.1428000D+01 0.1428000D+01
EXPONENTS  0.1428000D+01 0.1428000D+01 0.5000000D+00 0.5000000D+00 0.5000000D+00
EXPONENTS  0.5000000D+00 0.5000000D+00 0.5000000D+00 0.5000000D+00 0.5000000D+00
EXPONENTS  0.5000000D+00 0.5000000D+00 0.3387000D+02 0.5095000D+01 0.1159000D+01
EXPONENTS  0.3258000D+00 0.1027000D+00 0.2526000D-01 0.1407000D+01 0.1407000D+01
EXPONENTS  0.1407000D+01 0.3880000D+00 0.3880000D+00 0.3880000D+00 0.1020000D+00
EXPONENTS  0.1020000D+00 0.1020000D+00 0.1057000D+01 0.1057000D+01 0.1057000D+01
EXPONENTS  0.1057000D+01 0.1057000D+01 0.1057000D+01 0.2470000D+00 0.2470000D+00
EXPONENTS  0.2470000D+00 0.2470000D+00 0.2470000D+00 0.2470000D+00 0.3387000D+02
EXPONENTS  0.5095000D+01 0.1159000D+01 0.3258000D+00 0.1027000D+00 0.2526000D-01
EXPONENTS  0.1407000D+01 0.1407000D+01 0.1407000D+01 0.3880000D+00 0.3880000D+00
EXPONENTS  0.3880000D+00 0.1020000D+00 0.1020000D+00 0.1020000D+00 0.1057000D+01
EXPONENTS  0.1057000D+01 0.1057000D+01 0.1057000D+01 0.1057000D+01 0.1057000D+01
EXPONENTS  0.2470000D+00 0.2470000D+00 0.2470000D+00 0.2470000D+00 0.2470000D+00
EXPONENTS  0.2470000D+00
MO    1     MO 0.0        OCC NO =    2.0000000  ORB. ENERGY =  -19.154182
  0.49669426D+00  0.92575644D+00  0.15697501D+01  0.23756499D+01  0.29634360D+01
  0.25430690D+01  0.97386032D+00  0.35843855D-04  0.38458104D-03  0.14176381D-02
  0.41450907D-02  0.49950359D-02 -0.60170501D-02  0.55564088D-01 -0.40397900D-04
 -0.12364374D-03  0.53080754D-03  0.51470476D-03  0.34721679D-03  0.74891282D-02
  0.72619352D-02  0.48988586D-02  0.75052246D-04  0.72775432D-04  0.49093877D-04
 -0.72771178D-03 -0.76146816D-03  0.72621562D-03 -0.30466521D-03 -0.37314629D-03
  0.29929949D-03 -0.10974244D-04 -0.52155588D-05  0.11498320D-04 -0.40491880D-03
  0.49193290D-03 -0.87014098D-04 -0.31387801D-03 -0.31862954D-02  0.75121780D-03
  0.46711379D-04 -0.75787556D-04  0.29076177D-04 -0.66251538D-03  0.83657467D-03
  0.62864363D-03  0.12829503D-04 -0.20106943D-04  0.72774406D-05 -0.74705395D-04
  0.13270782D-03  0.64474751D-04  0.26561335D-03 -0.10236276D-03 -0.24245916D-03
 -0.58934746D-03  0.93219056D-05  0.29797914D-04 -0.20749260D-03  0.29776638D-03
  0.69757957D-03 -0.12238120D-02  0.38822578D-05  0.83669458D-04 -0.14025414D-04
 -0.36218188D-04 -0.91828363D-04  0.33924706D-04  0.24571415D-04 -0.15918001D-03
  0.81515372D-05  0.85355854D-03  0.17231581D-03  0.31077865D-03  0.45824294D-03
 -0.11492119D-03 -0.28645356D-03 -0.62492059D-05  0.26454351D-04 -0.12503814D-03
 -0.39724128D-04 -0.22800946D-03  0.20695578D-03  0.26640426D-03 -0.46291049D-04
  0.42369526D-04  0.54116838D-04  0.18803338D-03 -0.15599909D-03 -0.32034295D-04
  0.13403480D-02  0.11287606D-02 -0.16009731D-02 -0.54060485D-05  0.16384663D-04
 -0.10978615D-04  0.19015956D-04  0.45805872D-04 -0.20446424D-04  0.80188639D-04
  0.14462351D-03  0.21324729D-03  0.13831988D-02  0.32709610D-03  0.14980556D-04
 -0.51258540D-03 -0.77665514D-03  0.49057516D-03 -0.45437844D-03 -0.60409094D-03
  0.44223154D-03 -0.35639775D-04 -0.30671830D-04  0.36144561D-04 -0.37252232D-04
  0.68969239D-04 -0.31717007D-04  0.10388175D-03 -0.15483464D-03 -0.81498041D-04
 -0.68556676D-05  0.14122111D-04 -0.72664430D-05  0.41521315D-04 -0.34261392D-04
 -0.38533340D-04
MO    2     MO 0.0        OCC NO =    2.0000000  ORB. ENERGY =   -0.996981
 -0.10560755D+00 -0.19683511D+00 -0.33376158D+00 -0.50511266D+00 -0.63008823D+00
 -0.54070945D+00 -0.20706299D+00 -0.16401980D-02 -0.17598248D-01 -0.64870455D-01
 -0.18967741D+00 -0.22857050D+00  0.27533738D+00  0.15615859D+00  0.73647452D-01
  0.34072834D-02 -0.18349590D-01 -0.17792930D-01 -0.12003006D-01  0.29148507D+00
  0.28264247D+00  0.19066894D+00  0.45412179D-01  0.44034538D-01  0.29705439D-01
 -0.20461970D-02  0.70451497D-01  0.83738396D-02  0.40357462D-03  0.54919929D-02
  0.39027127D-04 -0.12703256D-05  0.12652028D-03  0.12375888D-04 -0.81544755D-02
  0.12481801D-01 -0.43273251D-02 -0.31385919D-02 -0.38132938D-01  0.10051027D-01
 -0.26132879D-02  0.43806164D-02 -0.17673285D-02  0.17041335D-02 -0.10572908D-01
  0.22258483D-03 -0.63656373D-04  0.15580875D-03 -0.92152380D-04  0.25668679D-03
  0.87039280D-04 -0.24670341D-03 -0.36141016D-04 -0.10958287D-02  0.17080213D-03
  0.96108015D-03  0.68245871D-03 -0.92957396D-03 -0.85265710D-03  0.26050275D-02
  0.41716759D-03 -0.23092346D-01 -0.14577590D-03  0.21805406D-03  0.11818876D-03
  0.47792749D-03 -0.32352298D-03 -0.42821168D-04 -0.40599786D-04 -0.33063921D-03
 -0.31174510D-03 -0.10656986D-02  0.23750114D-01  0.42834309D-01  0.63159164D-01
  0.23884032D-01 -0.11687185D-02 -0.79089539D-04  0.14318736D-01 -0.17879314D-01
 -0.17155980D-01  0.25575411D-02 -0.31489416D-02 -0.30597217D-02 -0.17105970D-03
  0.23430421D-03  0.20688467D-03 -0.84469629D-03  0.73048617D-03  0.11421012D-03
 -0.56133942D-02 -0.51385534D-02  0.67612022D-02  0.85325022D-05 -0.20263723D-04
  0.11731221D-04  0.12567027D-04 -0.54067756D-04 -0.13947825D-04  0.18766469D-01
  0.33846099D-01  0.49906053D-01  0.18098847D-01 -0.78260356D-03 -0.43226870D-04
 -0.11984024D-01 -0.13156120D-01  0.11905548D-01 -0.21873161D-02 -0.24949538D-02
  0.21655960D-02  0.11453074D-03  0.14990723D-03 -0.11159870D-03 -0.19405214D-03
  0.39733520D-03 -0.20328306D-03  0.34280977D-02 -0.31996384D-02 -0.33506365D-02
 -0.28512305D-04  0.55955541D-04 -0.27443236D-04  0.16213018D-03 -0.16106568D-03
 -0.14760206D-03
MO    3     MO 0.0        OCC NO =    2.0000000  ORB. ENERGY =   -0.494315
  0.49777445D-02  0.92776973D-02  0.15731640D-01  0.23808164D-01  0.29698807D-01
  0.25485995D-01  0.97597822D-02  0.90278366D-04  0.96862762D-03  0.35705438D-02
  0.10440061D-01  0.12580781D-01 -0.15154884D-01 -0.74321280D-02 -0.13487826D-01
 -0.13599314D-02 -0.98681099D+00 -0.95687471D+00 -0.64550203D+00  0.10277570D+00
  0.99657857D-01  0.67228602D-01  0.10838147D+01  0.10509357D+01  0.70895502D+00
 -0.21472322D+00  0.17487143D-01  0.23540532D+00 -0.26752436D-01  0.25823135D-03
  0.29161969D-01 -0.44967704D-03  0.90099281D-05  0.49061414D-03 -0.45187299D-02
  0.82546727D-03  0.36932626D-02 -0.87402212D-01 -0.61353495D-02  0.96012348D-01
 -0.75816477D-03  0.14904744D-03  0.60911732D-03 -0.17359926D-01  0.17287175D-02
  0.18807598D-01  0.58677436D-04 -0.10309986D-03  0.44422423D-04 -0.37445431D-03
  0.51180986D-03  0.33627623D-03  0.52766077D-02  0.41925137D-03 -0.43452796D-02
 -0.28248729D-02 -0.18784994D-02  0.99169406D-02 -0.13004950D-01  0.62074533D-03
  0.31188982D-02  0.22529255D-02  0.53520519D-03  0.16262331D-03 -0.50487352D-03
 -0.93536991D-03 -0.36389508D-03  0.51414341D-03 -0.67024565D-03 -0.12397484D-03
  0.10004771D-02  0.12117218D-02  0.36111652D-01  0.65128851D-01  0.96032453D-01
  0.65657156D-01  0.81910080D-02 -0.17886164D-03  0.77385905D-02 -0.25809185D-01
 -0.10679957D-01  0.33187913D-02 -0.11063693D-01 -0.45796570D-02 -0.26968425D-03
 -0.26102765D-03  0.27086260D-03 -0.34881743D-02  0.54518001D-02 -0.19636258D-02
 -0.10233695D-01 -0.63319213D-02  0.13142272D-01 -0.16347722D-03  0.30032566D-03
 -0.13684843D-03 -0.41932318D-03  0.15032844D-03  0.52305275D-03 -0.32870422D-01
 -0.59283159D-01 -0.87412984D-01 -0.54932325D-01 -0.75825906D-02  0.21126276D-03
  0.68225402D-02  0.20609735D-01 -0.56336192D-02  0.23892465D-02  0.89005918D-02
 -0.18277968D-02 -0.17098057D-03  0.34660061D-03  0.21645383D-03  0.21322149D-02
 -0.46432152D-02  0.25110003D-02 -0.82520860D-02  0.32361612D-02  0.74894949D-02
  0.13279753D-03 -0.31413729D-03  0.18133976D-03 -0.74591166D-03  0.14577358D-03
  0.71735346D-03
MO    4     MO 0.0        OCC NO =    2.0000000  ORB. ENERGY =   -0.413209
  0.37978667D-01  0.70785991D-01  0.12002760D+00  0.18164900D+00  0.22659281D+00
  0.19445034D+00  0.74464152D-01  0.63391986D-03  0.68015441D-02  0.25071772D-01
  0.73308391D-01  0.88340176D-01 -0.10641510D+00 -0.63247858D-01 -0.73634294D-01
 -0.11454607D-01  0.11537788D+00  0.11187773D+00  0.75472056D-01  0.15256706D+01
  0.14793873D+01  0.99798594D+00  0.74353994D-02  0.72098363D-02  0.48637130D-02
  0.27752383D-01  0.33247628D+00 -0.12214373D-02  0.46837308D-02  0.45554597D-01
 -0.11284020D-02  0.86120462D-04  0.96901264D-03 -0.95393121D-05 -0.20887921D-01
  0.39617078D-01 -0.18729156D-01  0.75846139D-02 -0.26505313D-01  0.44730474D-02
 -0.57204894D-02  0.11737944D-01 -0.60174542D-02  0.32747996D-02  0.16194092D-02
 -0.62892936D-03 -0.11040063D-03  0.32686804D-03 -0.21646741D-03  0.40757628D-03
  0.82994676D-03 -0.43217720D-03 -0.90507084D-03  0.32535025D-02  0.37804171D-03
  0.24213243D-02 -0.57713098D-02 -0.24088941D-02  0.29388819D-03 -0.39891976D-02
  0.12747690D-02 -0.24805085D-01 -0.16668145D-03  0.69186245D-03  0.82680151D-04
  0.55621766D-03 -0.98358696D-03  0.74149341D-05 -0.56173314D-04 -0.10920004D-02
 -0.25545539D-03  0.15044422D-03  0.22008124D-01  0.39692559D-01  0.58526654D-01
  0.48578695D-01  0.97841510D-02  0.17014943D-03  0.12924857D-01  0.30401609D-02
 -0.13812818D-01  0.79305736D-02 -0.57537587D-03 -0.86869602D-02  0.36465419D-03
  0.34333001D-03 -0.36641848D-03  0.73562467D-03 -0.26741512D-02  0.19385265D-02
 -0.48167810D-02 -0.90859131D-02  0.53452576D-02  0.66338414D-04 -0.18405616D-03
  0.11771774D-03 -0.11112896D-03 -0.49931694D-03  0.11750396D-03  0.25545768D-01
  0.46072845D-01  0.67934383D-01  0.51731250D-01  0.11858316D-01  0.15664081D-03
 -0.10570400D-01  0.10252089D-02  0.11602894D-01 -0.74233863D-02 -0.15257443D-02
  0.79547553D-02 -0.46809192D-03  0.11720964D-03  0.52082973D-03  0.84258516D-03
 -0.19922298D-02  0.11496446D-02  0.39092210D-02 -0.75123494D-02 -0.41242671D-02
  0.12341427D-04 -0.46830840D-04  0.34489413D-04  0.51248735D-03 -0.74520265D-03
 -0.50444019D-03
MO    5     MO 0.0        OCC NO =    2.0000000  ORB. ENERGY =   -0.323897
 -0.49573078D-06 -0.92396067D-06 -0.15667052D-05 -0.23710417D-05 -0.29576876D-05
 -0.25381360D-05 -0.97197124D-06 -0.47592968D-08 -0.51064132D-07 -0.18823200D-06
 -0.55037934D-06 -0.66323387D-06  0.79893548D-06  0.49013225D-06  0.48900032D-05
 -0.27749943D-06  0.13187806D+01  0.12787736D+01  0.86265310D+00 -0.10563696D+00
 -0.10243231D+00 -0.69100234D-01  0.12107629D+01  0.11740327D+01  0.79199552D+00
  0.29695076D+00 -0.23785257D-01  0.27262907D+00  0.51912095D-01 -0.41559418D-02
  0.47662079D-01  0.20162263D-02 -0.16160841D-03  0.18512568D-02 -0.92031565D-03
 -0.37260186D-02  0.46463343D-02  0.46598640D-01  0.42167920D-02  0.42307861D-01
  0.40538728D-03 -0.11505339D-02  0.74514660D-03  0.14333452D-01  0.11830597D-02
  0.13125284D-01  0.13127732D-03 -0.54610338D-04 -0.76666985D-04  0.67950920D-03
  0.37287788D-04  0.64117531D-03  0.19247304D-02 -0.74760585D-03  0.34533362D-02
  0.92884686D-02  0.36937401D-03 -0.18736235D-01 -0.15062660D-01  0.18734435D-02
  0.83762266D-02  0.44904530D-02  0.92383053D-04 -0.59320761D-04  0.14655616D-03
  0.69929444D-03  0.53691580D-03 -0.11525137D-02 -0.97644360D-03 -0.35895352D-03
  0.71284520D-03  0.22197100D-03 -0.23915669D-06 -0.43132894D-06 -0.63599426D-06
 -0.62829501D-05  0.18964402D-05  0.83724006D-09  0.17103516D-01 -0.13692626D-02
  0.15704172D-01  0.85650858D-02 -0.68552466D-03  0.78655465D-02  0.10649959D-02
 -0.84852521D-04  0.97657123D-03  0.49884686D-02  0.54563671D-03 -0.55341053D-02
 -0.72134755D-02 -0.14467624D-02 -0.57730897D-02  0.47275682D-03  0.45155307D-04
 -0.51791213D-03 -0.60422903D-03 -0.13069904D-03 -0.47528094D-03 -0.42086509D-06
 -0.75904752D-06 -0.11192151D-05 -0.25100693D-05 -0.10334872D-05  0.57045764D-08
  0.14183236D-01 -0.11354608D-02  0.13021715D-01  0.72332084D-02 -0.57945081D-03
  0.66381132D-02  0.88918263D-03 -0.71094634D-04  0.81570384D-03 -0.49621795D-02
  0.47940724D-03  0.44827722D-02 -0.55894235D-02  0.32838963D-03 -0.58879042D-02
 -0.38392027D-03  0.30630065D-04  0.35329021D-03 -0.35137257D-03  0.32662389D-04
 -0.38117806D-03
END DATA
 TOTAL ENERGY =      -76.460540818734 THE VIRIAL(-V/T)=   2.00902678
