 WATER_MONOMER0002
GAUSSIAN              5 MOL ORBITALS     46 PRIMITIVES        3 NUCLEI   B3LYP
O      1    (CENTRE  1)   0.46536991  0.52105832  0.42415440  CHARGE = 8.0
H      2    (CENTRE  2)  -1.24674382 -0.06470356  0.62642716  CHARGE = 1.0
H      3    (CENTRE  3)   0.78137390 -0.45635476 -1.05058158  CHARGE = 1.0
CENTRE ASSIGNMENTS    1  1  1  1  1  1  1  1  1  1  1  1  1  1  1  1  1  1  1  1
CENTRE ASSIGNMENTS    1  1  1  1  1  1  1  1  1  1  1  1  2  2  2  2  2  2  2  3
CENTRE ASSIGNMENTS    3  3  3  3  3  3
TYPE ASSIGNMENTS      1  1  1  1  1  1  1  1  1  2  2  2  3  3  3  4  4  4  1  2
TYPE ASSIGNMENTS      3  4  1  2  3  4  5  6  7  8  9 10  1  1  1  1  2  3  4  1
TYPE ASSIGNMENTS      1  1  1  2  3  4
EXPONENTS  5.4846720D+03 8.2523490D+02 1.8804700D+02 5.2964500D+01 1.6897570D+01
EXPONENTS  5.7996350D+00 1.5539620D+01 3.5999340D+00 1.0137620D+00 1.5539620D+01
EXPONENTS  3.5999340D+00 1.0137620D+00 1.5539620D+01 3.5999340D+00 1.0137620D+00
EXPONENTS  1.5539620D+01 3.5999340D+00 1.0137620D+00 2.7000580D-01 2.7000580D-01
EXPONENTS  2.7000580D-01 2.7000580D-01 8.4500000D-02 8.4500000D-02 8.4500000D-02
EXPONENTS  8.4500000D-02 8.0000000D-01 8.0000000D-01 8.0000000D-01 8.0000000D-01
EXPONENTS  8.0000000D-01 8.0000000D-01 1.8731140D+01 2.8253940D+00 6.4012170D-01
EXPONENTS  1.6127780D-01 1.1000000D+00 1.1000000D+00 1.1000000D+00 1.8731140D+01
EXPONENTS  2.8253940D+00 6.4012170D-01 1.6127780D-01 1.1000000D+00 1.1000000D+00
EXPONENTS  1.1000000D+00
MO    1                   OCC NO =    2.0000000  ORB. ENERGY =  -19.172164
  8.25707140D-01  1.51974190D+00  2.45922930D+00  3.23272570D+00  2.77269010D+00
  9.48029830D-01 -1.60367670D-02 -7.15557410D-03  2.11305060D-02 -2.34748410D-03
 -1.80860990D-03 -7.94077180D-04 -2.74573060D-03 -2.11543740D-03 -9.28790970D-04
 -2.29495390D-03 -1.76813820D-03 -7.76307930D-04  3.16743900D-03  7.43010650D-05
  7.52740640D-05  5.72359540D-05 -9.19179830D-05 -2.95080130D-05 -3.37800080D-05
 -2.78757610D-05 -8.88170500D-03 -8.92506080D-03 -8.86776760D-03  4.07354060D-05
 -7.38418670D-05  1.58152610D-04  5.94922290D-05  1.00910080D-04  1.14882560D-04
 -2.01720340D-04 -3.27305630D-04 -1.13207520D-04  3.70438040D-05  4.81326540D-05
  8.16420920D-05  9.29466360D-05 -2.13183130D-04  7.65757630D-05 -2.46721030D-04
 -3.70434030D-04
MO    2                   OCC NO =    2.0000000  ORB. ENERGY =   -1.034620
 -1.74157760D-01 -3.20543250D-01 -5.18699480D-01 -6.81844990D-01 -5.84814480D-01
 -1.99958000D-01 -2.88773600D-01 -1.28850220D-01  3.80496420D-01 -2.23570390D-01
 -1.72248930D-01 -7.56265580D-02 -2.61019380D-01 -2.01101360D-01 -8.82943310D-02
 -2.17932260D-01 -1.67905060D-01 -7.37193630D-02  1.11397180D-01 -6.83703940D-03
 -7.79103400D-03 -6.41139250D-03  2.75020200D-03 -5.29436530D-04 -6.31880390D-04
 -5.34306270D-04 -2.31357530D-05 -3.20766870D-03 -1.98849910D-03  8.05034610D-03
  3.88939510D-04  1.07794760D-02  3.35055970D-02  5.68318350D-02  6.47010350D-02
 -5.55824700D-04  3.72765420D-02  8.60258500D-03 -9.90016720D-03  3.46521020D-02
  5.87765240D-02  6.69149950D-02 -7.49459510D-04 -1.32551870D-02  1.90400120D-02
  3.27828550D-02
MO    3                   OCC NO =    2.0000000  ORB. ENERGY =   -0.523908
  1.14444780D-03  2.10639490D-03  3.40854450D-03  4.48062720D-03  3.84300790D-03
  1.31398970D-03  1.96074630D-03  8.74881170D-04 -2.58353580D-03  1.24360720D+00
  9.58132310D-01  4.20671690D-01 -2.55989290D-01 -1.97225950D-01 -8.65928160D-02
 -1.04928160D+00 -8.08414900D-01 -3.54937680D-01 -1.72718810D-03  5.39317020D-02
 -1.08709220D-02 -4.51989980D-02 -1.17674900D-04  8.92773900D-04 -1.95044640D-04
 -7.68196890D-04 -2.58231880D-02  5.84295220D-03  2.00975080D-02 -2.40812780D-02
 -2.45603390D-03  2.93853880D-02 -5.15494010D-02 -8.74375410D-02 -9.95445500D-02
 -2.55026700D-02 -1.96376620D-02 -1.59488670D-02 -9.90225010D-03  5.18425620D-02
  8.79347970D-02  1.00110660D-01  2.53713490D-02  1.03584040D-02  1.76967040D-02
  1.75167030D-02
MO    4                   OCC NO =    2.0000000  ORB. ENERGY =   -0.415733
 -7.36933580D-02 -1.35635120D-01 -2.19483220D-01 -2.88516840D-01 -2.47459220D-01
 -8.46105090D-02 -1.23812500D-01 -5.52448960D-02  1.63138920D-01  9.67415640D-01
  7.45341600D-01  3.27245110D-01  1.08769560D+00  8.38010830D-01  3.67931890D-01
  8.87714220D-01  6.83935950D-01  3.00284720D-01  9.51370970D-02  4.74920590D-02
  5.32736340D-02  4.34162840D-02  7.93877260D-03  2.18547590D-03  2.46408780D-03
  2.01454530D-03 -6.06724610D-03 -1.07217930D-02 -4.22826090D-03 -3.42070090D-02
 -2.85019400D-02 -3.17207600D-02 -3.36096140D-02 -5.70082670D-02 -6.49018970D-02
 -2.14625430D-02 -1.07417780D-02  1.22947000D-02  2.24154500D-02 -3.30006000D-02
 -5.59752640D-02 -6.37258590D-02 -2.08721960D-02  2.62239520D-02  5.59958490D-03
 -7.56366990D-03
MO    5                   OCC NO =    2.0000000  ORB. ENERGY =   -0.323755
 -2.04222660D-09 -3.75878710D-09 -6.08242700D-09 -7.99552060D-09 -6.85771160D-09
 -2.34476800D-09 -2.16469040D-09 -9.65880630D-10  2.85225840D-09 -6.53484360D-01
 -5.03474470D-01 -2.21052410D-01  1.51497870D+00  1.16720940D+00  5.12467820D-01
 -1.14411240D+00 -8.81476900D-01 -3.87015840D-01 -1.56255180D-09 -3.78924000D-02
  8.78463010D-02 -6.63415460D-02 -9.85166940D-09 -2.66554050D-03  6.17955660D-03
 -4.66680190D-03  1.03796400D-02 -2.74920670D-02  1.71124440D-02 -1.22045200D-02
  2.79466710D-02 -1.89745410D-03 -2.44624660D-09 -4.14929720D-09 -4.72382820D-09
  1.03327210D-08 -1.19546180D-02  2.77144950D-02 -2.09299960D-02  1.71201850D-09
  2.90390730D-09  3.30599590D-09  1.03241700D-08 -1.21249020D-02  2.81092710D-02
 -2.12281250D-02
END DATA
 TOTAL ENERGY =      -76.430599107417 THE VIRIAL(-V/T)=   2.00850663
