 Entering Gaussian System, Link 0=/opt/software/RI/non-eb/apps/binapps/gaussian/g16c01_em64t_haswell/g16/g16
 Input=/gpfs01/scratch/mbdxwym4/water_monomer_example_dir/WATER_MONOMER.pointsdir/WATER_MONOMER0002.pointdir/WATER_MONOMER0002.gjf
 Output=/gpfs01/scratch/mbdxwym4/water_monomer_example_dir/WATER_MONOMER.pointsdir/WATER_MONOMER0002.pointdir/WATER_MONOMER0002.gaussianoutput
 Initial command:
 /opt/software/RI/non-eb/apps/binapps/gaussian/g16c01_em64t_haswell/g16/l1.exe "/gpfs01/scratch/mbdxwym4/water_monomer_example_dir/WATER_MONOMER.pointsdir/WATER_MONOMER0002.pointdir/Gau-111380.inp" -scrdir="/gpfs01/scratch/mbdxwym4/water_monomer_example_dir/WATER_MONOMER.pointsdir/WATER_MONOMER0002.pointdir/"
 Entering Link 1 = /opt/software/RI/non-eb/apps/binapps/gaussian/g16c01_em64t_haswell/g16/l1.exe PID=    111387.

 Copyright (c) 1988-2019, Gaussian, Inc.  All Rights Reserved.

 This is part of the Gaussian(R) 16 program.  It is based on
 the Gaussian(R) 09 system (copyright 2009, Gaussian, Inc.),
 the Gaussian(R) 03 system (copyright 2003, Gaussian, Inc.),
 the Gaussian(R) 98 system (copyright 1998, Gaussian, Inc.),
 the Gaussian(R) 94 system (copyright 1995, Gaussian, Inc.),
 the Gaussian 92(TM) system (copyright 1992, Gaussian, Inc.),
 the Gaussian 90(TM) system (copyright 1990, Gaussian, Inc.),
 the Gaussian 88(TM) system (copyright 1988, Gaussian, Inc.),
 the Gaussian 86(TM) system (copyright 1986, Carnegie Mellon
 University), and the Gaussian 82(TM) system (copyright 1983,
 Carnegie Mellon University). Gaussian is a federally registered
 trademark of Gaussian, Inc.

 This software contains proprietary and confidential information,
 including trade secrets, belonging to Gaussian, Inc.

 This software is provided under written license and may be
 used, copied, transmitted, or stored only in accord with that
 written license.

 The following legend is applicable only to US Government
 contracts under FAR:

                    RESTRICTED RIGHTS LEGEND

 Use, reproduction and disclosure by the US Government is
 subject to restrictions as set forth in subparagraphs (a)
 and (c) of the Commercial Computer Software - Restricted
 Rights clause in FAR 52.227-19.

 Gaussian, Inc.
 340 Quinnipiac St., Bldg. 40, Wallingford CT 06492


 ---------------------------------------------------------------
 Warning -- This program may not be used in any manner that
 competes with the business of Gaussian, Inc. or will provide
 assistance to any competitor of Gaussian, Inc.  The licensee
 of this program is prohibited from giving any competitor of
 Gaussian, Inc. access to this program.  By using this program,
 the user acknowledges that Gaussian, Inc. is engaged in the
 business of creating and licensing software in the field of
 computational chemistry and represents and warrants to the
 licensee that it is not a competitor of Gaussian, Inc. and that
 it will not use this program in any manner prohibited above.
 ---------------------------------------------------------------


 Cite this work as:
 Gaussian 16, Revision C.01,
 M. J. Frisch, G. W. Trucks, H. B. Schlegel, G. E. Scuseria,
 M. A. Robb, J. R. Cheeseman, G. Scalmani, V. Barone,
 G. A. Petersson, H. Nakatsuji, X. Li, M. Caricato, A. V. Marenich,
 J. Bloino, B. G. Janesko, R. Gomperts, B. Mennucci, H. P. Hratchian,
 J. V. Ortiz, A. F. Izmaylov, J. L. Sonnenberg, D. Williams-Young,
 F. Ding, F. Lipparini, F. Egidi, J. Goings, B. Peng, A. Petrone,
 T. Henderson, D. Ranasinghe, V. G. Zakrzewski, J. Gao, N. Rega,
 G. Zheng, W. Liang, M. Hada, M. Ehara, K. Toyota, R. Fukuda,
 J. Hasegawa, M. Ishida, T. Nakajima, Y. Honda, O. Kitao, H. Nakai,
 T. Vreven, K. Throssell, J. A. Montgomery, Jr., J. E. Peralta,
 F. Ogliaro, M. J. Bearpark, J. J. Heyd, E. N. Brothers, K. N. Kudin,
 V. N. Staroverov, T. A. Keith, R. Kobayashi, J. Normand,
 K. Raghavachari, A. P. Rendell, J. C. Burant, S. S. Iyengar,
 J. Tomasi, M. Cossi, J. M. Millam, M. Klene, C. Adamo, R. Cammi,
 J. W. Ochterski, R. L. Martin, K. Morokuma, O. Farkas,
 J. B. Foresman, and D. J. Fox, Gaussian, Inc., Wallingford CT, 2019.

 ******************************************
 Gaussian 16:  ES64L-G16RevC.01  3-Jul-2019
                 7-May-2024
 ******************************************
 --------------------------------------------------------
 #p b3lyp/6-31+g(d,p) nosymm output=wfn force geom=notest
 --------------------------------------------------------
 1/10=7,30=1,38=1/1,3;
 2/12=3,15=1,17=6,18=5,40=1/2;
 3/5=1,6=6,7=111,11=2,25=1,30=1,71=1,74=-5/1,2,3;
 4//1;
 5/5=2,38=5/2;
 6/7=2,8=2,9=2,10=2,28=1/1;
 7/29=1,30=1/1,2,3,16;
 1/10=7,30=1/3;
 99/6=100/99;
 Leave Link    1 at Tue May  7 15:36:21 2024, MaxMem=           0 cpu:               0.1 elap:               0.1
 (Enter /opt/software/RI/non-eb/apps/binapps/gaussian/g16c01_em64t_haswell/g16/l101.exe)
 -----------------
 WATER_MONOMER0002
 -----------------
 Symbolic Z-matrix:
 Charge =  0 Multiplicity = 1
 O                     0.24626   0.27573   0.22445
 H                    -0.65975  -0.03424   0.33149
 H                     0.41349  -0.24149  -0.55594

 ITRead=  0  0  0
 MicOpt= -1 -1 -1
 NAtoms=      3 NQM=        3 NQMF=       0 NMMI=      0 NMMIF=      0
                NMic=       0 NMicF=      0.
                    Isotopes and Nuclear Properties:
 (Nuclear quadrupole moments (NQMom) in fm**2, nuclear magnetic moments (NMagM)
  in nuclear magnetons)

  Atom         1           2           3
 IAtWgt=          16           1           1
 AtmWgt=  15.9949146   1.0078250   1.0078250
 NucSpn=           0           1           1
 AtZEff=  -0.0000000  -0.0000000  -0.0000000
 NQMom=    0.0000000   0.0000000   0.0000000
 NMagM=    0.0000000   2.7928460   2.7928460
 AtZNuc=   8.0000000   1.0000000   1.0000000
 Leave Link  101 at Tue May  7 15:36:21 2024, MaxMem=   104857600 cpu:               0.1 elap:               0.1
 (Enter /opt/software/RI/non-eb/apps/binapps/gaussian/g16c01_em64t_haswell/g16/l103.exe)

 GradGradGradGradGradGradGradGradGradGradGradGradGradGradGradGradGradGrad
 Berny optimization.
 Initialization pass.
 Trust Radius=3.00D-01 FncErr=1.00D-07 GrdErr=1.00D-07 EigMax=2.50D+02 EigMin=1.00D-04
 Number of steps in this run=      2 maximum allowed number of steps=      2.
 GradGradGradGradGradGradGradGradGradGradGradGradGradGradGradGradGradGrad

 Leave Link  103 at Tue May  7 15:36:22 2024, MaxMem=   104857600 cpu:               0.0 elap:               0.1
 (Enter /opt/software/RI/non-eb/apps/binapps/gaussian/g16c01_em64t_haswell/g16/l202.exe)
                          Input orientation:
 ---------------------------------------------------------------------
 Center     Atomic      Atomic             Coordinates (Angstroms)
 Number     Number       Type             X           Y           Z
 ---------------------------------------------------------------------
      1          8           0        0.246263    0.275732    0.224453
      2          1           0       -0.659748   -0.034240    0.331491
      3          1           0        0.413485   -0.241493   -0.555944
 ---------------------------------------------------------------------
                    Distance matrix (angstroms):
                    1          2          3
     1  O    0.000000
     2  H    0.963533   0.000000
     3  H    0.951054   1.407951   0.000000
 Symmetry turned off by external request.
 Stoichiometry    H2O
 Framework group  CS[SG(H2O)]
 Deg. of freedom     3
 Full point group                 CS      NOp   2
 Rotational constants (GHZ):         671.2778291         505.6614185         288.4085139
 Leave Link  202 at Tue May  7 15:36:22 2024, MaxMem=   104857600 cpu:               0.0 elap:               0.0
 (Enter /opt/software/RI/non-eb/apps/binapps/gaussian/g16c01_em64t_haswell/g16/l301.exe)
 Standard basis: 6-31+G(d,p) (6D, 7F)
 Ernie: Thresh=  0.10000D-02 Tol=  0.10000D-05 Strict=F.
    29 basis functions,    46 primitive gaussians,    29 cartesian basis functions
     5 alpha electrons        5 beta electrons
       nuclear repulsion energy         9.2207786825 Hartrees.
 IExCor=  402 DFT=T Ex+Corr=B3LYP ExCW=0 ScaHFX=  0.200000
 ScaDFX=  0.800000  0.720000  1.000000  0.810000 ScalE2=  1.000000  1.000000
 IRadAn=      5 IRanWt=     -1 IRanGd=            0 ICorTp=0 IEmpDi=  4
 NAtoms=    3 NActive=    3 NUniq=    3 SFac= 1.00D+00 NAtFMM=   60 NAOKFM=F Big=F
 Integral buffers will be    131072 words long.
 Raffenetti 2 integral format.
 Two-electron integral symmetry is turned off.
 Leave Link  301 at Tue May  7 15:36:22 2024, MaxMem=   104857600 cpu:               0.1 elap:               0.1
 (Enter /opt/software/RI/non-eb/apps/binapps/gaussian/g16c01_em64t_haswell/g16/l302.exe)
 NPDir=0 NMtPBC=     1 NCelOv=     1 NCel=       1 NClECP=     1 NCelD=      1
         NCelK=      1 NCelE2=     1 NClLst=     1 CellRange=     0.0.
 One-electron integrals computed using PRISM.
 NBasis=    29 RedAO= T EigKep=  1.58D-02  NBF=    29
 NBsUse=    29 1.00D-06 EigRej= -1.00D+00 NBFU=    29
 Precomputing XC quadrature grid using
 IXCGrd= 4 IRadAn=           5 IRanWt=          -1 IRanGd=           0 AccXCQ= 0.00D+00.
 Generated NRdTot=       0 NPtTot=           0 NUsed=           0 NTot=          32
 NSgBfM=    29    29    29    29    29 MxSgAt=     3 MxSgA2=     3.
 Leave Link  302 at Tue May  7 15:36:22 2024, MaxMem=   104857600 cpu:               0.1 elap:               0.1
 (Enter /opt/software/RI/non-eb/apps/binapps/gaussian/g16c01_em64t_haswell/g16/l303.exe)
 DipDrv:  MaxL=1.
 Leave Link  303 at Tue May  7 15:36:22 2024, MaxMem=   104857600 cpu:               0.0 elap:               0.0
 (Enter /opt/software/RI/non-eb/apps/binapps/gaussian/g16c01_em64t_haswell/g16/l401.exe)
 ExpMin= 8.45D-02 ExpMax= 5.48D+03 ExpMxC= 8.25D+02 IAcc=3 IRadAn=         5 AccDes= 0.00D+00
 Harris functional with IExCor=  402 and IRadAn=       5 diagonalized for initial guess.
 HarFok:  IExCor=  402 AccDes= 0.00D+00 IRadAn=         5 IDoV= 1 UseB2=F ITyADJ=14
 ICtDFT=  3500011 ScaDFX=  1.000000  1.000000  1.000000  1.000000
 FoFCou: FMM=F IPFlag=           0 FMFlag=      100000 FMFlg1=           0
         NFxFlg=           0 DoJE=T BraDBF=F KetDBF=T FulRan=T
         wScrn=  0.000000 ICntrl=       500 IOpCl=  0 I1Cent=   200000004 NGrid=           0
         NMat0=    1 NMatS0=      1 NMatT0=    0 NMatD0=    1 NMtDS0=    0 NMtDT0=    0
 Symmetry not used in FoFCou.
 Harris En= -76.4598747790966
 JPrj=0 DoOrth=F DoCkMO=F.
 Leave Link  401 at Tue May  7 15:36:22 2024, MaxMem=   104857600 cpu:               0.3 elap:               0.3
 (Enter /opt/software/RI/non-eb/apps/binapps/gaussian/g16c01_em64t_haswell/g16/l502.exe)
 Keep R1 ints in memory in canonical form, NReq=958714.
 FoFCou: FMM=F IPFlag=           0 FMFlag=           0 FMFlg1=           0
         NFxFlg=           0 DoJE=F BraDBF=F KetDBF=F FulRan=T
         wScrn=  0.000000 ICntrl=       600 IOpCl=  0 I1Cent=           0 NGrid=           0
         NMat0=    1 NMatS0=    435 NMatT0=    0 NMatD0=    1 NMtDS0=    0 NMtDT0=    0
 Symmetry not used in FoFCou.
 Two-electron integral symmetry not used.
 Closed shell SCF:
 Using DIIS extrapolation, IDIIS=  1040.
 NGot=   104857600 LenX=   104760453 LenY=   104759171
 Requested convergence on RMS density matrix=1.00D-08 within 128 cycles.
 Requested convergence on MAX density matrix=1.00D-06.
 Requested convergence on             energy=1.00D-06.
 No special actions if energy rises.
 Integral accuracy reduced to 1.0D-05 until final iterations.

 Cycle   1  Pass 0  IDiag  1:
 E= -76.3574189211618
 DIIS: error= 6.38D-02 at cycle   1 NSaved=   1.
 NSaved= 1 IEnMin= 1 EnMin= -76.3574189211618     IErMin= 1 ErrMin= 6.38D-02
 ErrMax= 6.38D-02  0.00D+00 EMaxC= 1.00D-01 BMatC= 9.61D-02 BMatP= 9.61D-02
 IDIUse=3 WtCom= 3.62D-01 WtEn= 6.38D-01
 Coeff-Com:  0.100D+01
 Coeff-En:   0.100D+01
 Coeff:      0.100D+01
 Gap=     0.199 Goal=   None    Shift=    0.000
 GapD=    0.199 DampG=1.000 DampE=0.500 DampFc=0.5000 IDamp=-1.
 Damping current iteration by 5.00D-01
 RMSDP=1.72D-02 MaxDP=1.71D-01              OVMax= 2.17D-01

 Cycle   2  Pass 0  IDiag  1:
 E= -76.3704880392724     Delta-E=       -0.013069118111 Rises=F Damp=T
 DIIS: error= 2.54D-02 at cycle   2 NSaved=   2.
 NSaved= 2 IEnMin= 2 EnMin= -76.3704880392724     IErMin= 2 ErrMin= 2.54D-02
 ErrMax= 2.54D-02  0.00D+00 EMaxC= 1.00D-01 BMatC= 1.30D-02 BMatP= 9.61D-02
 IDIUse=3 WtCom= 7.46D-01 WtEn= 2.54D-01
 Coeff-Com:  0.260D+00 0.740D+00
 Coeff-En:   0.421D+00 0.579D+00
 Coeff:      0.301D+00 0.699D+00
 Gap=     0.329 Goal=   None    Shift=    0.000
 RMSDP=2.25D-03 MaxDP=1.59D-02 DE=-1.31D-02 OVMax= 1.40D-01

 Cycle   3  Pass 0  IDiag  1:
 E= -76.4302929380590     Delta-E=       -0.059804898787 Rises=F Damp=F
 DIIS: error= 4.29D-03 at cycle   3 NSaved=   3.
 NSaved= 3 IEnMin= 3 EnMin= -76.4302929380590     IErMin= 3 ErrMin= 4.29D-03
 ErrMax= 4.29D-03  0.00D+00 EMaxC= 1.00D-01 BMatC= 4.53D-04 BMatP= 1.30D-02
 IDIUse=3 WtCom= 9.57D-01 WtEn= 4.29D-02
 Coeff-Com:  0.550D-01-0.283D-01 0.973D+00
 Coeff-En:   0.000D+00 0.000D+00 0.100D+01
 Coeff:      0.526D-01-0.271D-01 0.975D+00
 Gap=     0.345 Goal=   None    Shift=    0.000
 RMSDP=3.84D-04 MaxDP=3.95D-03 DE=-5.98D-02 OVMax= 4.78D-03

 Cycle   4  Pass 0  IDiag  1:
 E= -76.4305952035791     Delta-E=       -0.000302265520 Rises=F Damp=F
 DIIS: error= 3.44D-04 at cycle   4 NSaved=   4.
 NSaved= 4 IEnMin= 4 EnMin= -76.4305952035791     IErMin= 4 ErrMin= 3.44D-04
 ErrMax= 3.44D-04  0.00D+00 EMaxC= 1.00D-01 BMatC= 4.32D-06 BMatP= 4.53D-04
 IDIUse=3 WtCom= 9.97D-01 WtEn= 3.44D-03
 Coeff-Com:  0.949D-02-0.231D-01 0.227D+00 0.787D+00
 Coeff-En:   0.000D+00 0.000D+00 0.000D+00 0.100D+01
 Coeff:      0.946D-02-0.230D-01 0.226D+00 0.788D+00
 Gap=     0.346 Goal=   None    Shift=    0.000
 RMSDP=3.73D-05 MaxDP=1.68D-04 DE=-3.02D-04 OVMax= 4.83D-04

 Cycle   5  Pass 0  IDiag  1:
 E= -76.4305982654742     Delta-E=       -0.000003061895 Rises=F Damp=F
 DIIS: error= 1.51D-04 at cycle   5 NSaved=   5.
 NSaved= 5 IEnMin= 5 EnMin= -76.4305982654742     IErMin= 5 ErrMin= 1.51D-04
 ErrMax= 1.51D-04  0.00D+00 EMaxC= 1.00D-01 BMatC= 4.47D-07 BMatP= 4.32D-06
 IDIUse=3 WtCom= 9.98D-01 WtEn= 1.51D-03
 Coeff-Com:  0.222D-02-0.330D-02 0.179D-01 0.638D-01 0.919D+00
 Coeff-En:   0.000D+00 0.000D+00 0.000D+00 0.000D+00 0.100D+01
 Coeff:      0.222D-02-0.329D-02 0.178D-01 0.637D-01 0.920D+00
 Gap=     0.346 Goal=   None    Shift=    0.000
 RMSDP=1.40D-05 MaxDP=1.26D-04 DE=-3.06D-06 OVMax= 1.71D-04

 Cycle   6  Pass 0  IDiag  1:
 E= -76.4305986097827     Delta-E=       -0.000000344309 Rises=F Damp=F
 DIIS: error= 1.24D-05 at cycle   6 NSaved=   6.
 NSaved= 6 IEnMin= 6 EnMin= -76.4305986097827     IErMin= 6 ErrMin= 1.24D-05
 ErrMax= 1.24D-05  0.00D+00 EMaxC= 1.00D-01 BMatC= 2.84D-09 BMatP= 4.47D-07
 IDIUse=1 WtCom= 1.00D+00 WtEn= 0.00D+00
 Coeff-Com: -0.231D-04 0.264D-04-0.439D-03-0.487D-02-0.805D-01 0.109D+01
 Coeff:     -0.231D-04 0.264D-04-0.439D-03-0.487D-02-0.805D-01 0.109D+01
 Gap=     0.346 Goal=   None    Shift=    0.000
 RMSDP=1.20D-06 MaxDP=1.12D-05 DE=-3.44D-07 OVMax= 1.64D-05

 Initial convergence to 1.0D-05 achieved.  Increase integral accuracy.
 Cycle   7  Pass 1  IDiag  1:
 E= -76.4305991074076     Delta-E=       -0.000000497625 Rises=F Damp=F
 DIIS: error= 3.66D-07 at cycle   1 NSaved=   1.
 NSaved= 1 IEnMin= 1 EnMin= -76.4305991074076     IErMin= 1 ErrMin= 3.66D-07
 ErrMax= 3.66D-07  0.00D+00 EMaxC= 1.00D-01 BMatC= 4.75D-12 BMatP= 4.75D-12
 IDIUse=1 WtCom= 1.00D+00 WtEn= 0.00D+00
 Coeff-Com:  0.100D+01
 Coeff:      0.100D+01
 Gap=     0.346 Goal=   None    Shift=    0.000
 RMSDP=1.20D-06 MaxDP=1.12D-05 DE=-4.98D-07 OVMax= 2.43D-06

 Cycle   8  Pass 1  IDiag  1:
 E= -76.4305991074158     Delta-E=       -0.000000000008 Rises=F Damp=F
 DIIS: error= 2.13D-07 at cycle   2 NSaved=   2.
 NSaved= 2 IEnMin= 2 EnMin= -76.4305991074158     IErMin= 2 ErrMin= 2.13D-07
 ErrMax= 2.13D-07  0.00D+00 EMaxC= 1.00D-01 BMatC= 1.52D-12 BMatP= 4.75D-12
 IDIUse=1 WtCom= 1.00D+00 WtEn= 0.00D+00
 Coeff-Com:  0.313D+00 0.687D+00
 Coeff:      0.313D+00 0.687D+00
 Gap=     0.346 Goal=   None    Shift=    0.000
 RMSDP=4.59D-08 MaxDP=3.94D-07 DE=-8.20D-12 OVMax= 4.68D-07

 Cycle   9  Pass 1  IDiag  1:
 E= -76.4305991074166     Delta-E=       -0.000000000001 Rises=F Damp=F
 DIIS: error= 1.71D-07 at cycle   3 NSaved=   3.
 NSaved= 3 IEnMin= 3 EnMin= -76.4305991074166     IErMin= 3 ErrMin= 1.71D-07
 ErrMax= 1.71D-07  0.00D+00 EMaxC= 1.00D-01 BMatC= 6.33D-13 BMatP= 1.52D-12
 IDIUse=1 WtCom= 1.00D+00 WtEn= 0.00D+00
 Coeff-Com:  0.570D-01 0.384D+00 0.559D+00
 Coeff:      0.570D-01 0.384D+00 0.559D+00
 Gap=     0.346 Goal=   None    Shift=    0.000
 RMSDP=1.98D-08 MaxDP=1.90D-07 DE=-7.67D-13 OVMax= 2.40D-07

 Cycle  10  Pass 1  IDiag  1:
 E= -76.4305991074170     Delta-E=       -0.000000000000 Rises=F Damp=F
 DIIS: error= 3.03D-08 at cycle   4 NSaved=   4.
 NSaved= 4 IEnMin= 4 EnMin= -76.4305991074170     IErMin= 4 ErrMin= 3.03D-08
 ErrMax= 3.03D-08  0.00D+00 EMaxC= 1.00D-01 BMatC= 2.80D-14 BMatP= 6.33D-13
 IDIUse=1 WtCom= 1.00D+00 WtEn= 0.00D+00
 Coeff-Com: -0.140D-01 0.567D-01 0.216D+00 0.741D+00
 Coeff:     -0.140D-01 0.567D-01 0.216D+00 0.741D+00
 Gap=     0.346 Goal=   None    Shift=    0.000
 RMSDP=5.76D-09 MaxDP=3.90D-08 DE=-3.98D-13 OVMax= 4.79D-08

 SCF Done:  E(RB3LYP) =  -76.4305991074     A.U. after   10 cycles
            NFock= 10  Conv=0.58D-08     -V/T= 2.0085
 KE= 7.578591604814D+01 PE=-1.987355305041D+02 EE= 3.729823666604D+01
 Leave Link  502 at Tue May  7 15:36:24 2024, MaxMem=   104857600 cpu:               1.1 elap:               1.1
 (Enter /opt/software/RI/non-eb/apps/binapps/gaussian/g16c01_em64t_haswell/g16/l601.exe)
 Copying SCF densities to generalized density rwf, IOpCl= 0 IROHF=0.

 **********************************************************************

            Population analysis using the SCF Density.

 **********************************************************************

 Alpha  occ. eigenvalues --  -19.17216  -1.03462  -0.52391  -0.41573  -0.32376
 Alpha virt. eigenvalues --    0.02217   0.11918   0.15482   0.15575   0.19720
 Alpha virt. eigenvalues --    0.26038   0.88215   1.00711   1.08180   1.11112
 Alpha virt. eigenvalues --    1.16040   1.25516   1.45374   1.53002   1.59491
 Alpha virt. eigenvalues --    2.24194   2.27999   2.57015   2.58155   2.72236
 Alpha virt. eigenvalues --    2.97590   3.33356   3.56069   3.91851
          Condensed to atoms (all electrons):
               1          2          3
     1  O    8.153094   0.262813   0.263997
     2  H    0.262813   0.419796  -0.022376
     3  H    0.263997  -0.022376   0.418243
 Mulliken charges:
               1
     1  O   -0.679903
     2  H    0.339767
     3  H    0.340136
 Sum of Mulliken charges =  -0.00000
 Mulliken charges with hydrogens summed into heavy atoms:
               1
     1  O   -0.000000
 Electronic spatial extent (au):  <R**2>=             24.3334
 Charge=             -0.0000 electrons
 Dipole moment (field-independent basis, Debye):
    X=             -1.3324    Y=             -1.5029    Z=             -1.2291  Tot=              2.3547
 Quadrupole moment (field-independent basis, Debye-Ang):
   XX=             -6.0559   YY=             -7.6792   ZZ=             -6.5966
   XY=             -0.2517   XZ=             -1.3516   YZ=              0.3550
 Traceless Quadrupole moment (field-independent basis, Debye-Ang):
   XX=              0.7214   YY=             -0.9019   ZZ=              0.1806
   XY=             -0.2517   XZ=             -1.3516   YZ=              0.3550
 Octapole moment (field-independent basis, Debye-Ang**2):
  XXX=             -4.7196  YYY=             -5.3872  ZZZ=             -4.3733  XYY=             -1.5173
  XXY=             -1.7003  XXZ=             -1.4362  XZZ=             -1.5791  YZZ=             -1.6989
  YYZ=             -1.3608  XYZ=              0.0836
 Hexadecapole moment (field-independent basis, Debye-Ang**3):
 XXXX=             -9.1389 YYYY=            -10.4563 ZZZZ=             -9.1524 XXXY=             -0.9871
 XXXZ=             -1.2163 YYYX=             -1.1784 YYYZ=             -0.9508 ZZZX=             -1.1644
 ZZZY=             -0.7955 XXYY=             -3.2977 XXZZ=             -3.0954 YYZZ=             -3.1475
 XXYZ=             -0.3143 YYXZ=             -0.3329 ZZXY=             -0.4511
 N-N= 9.220778682488D+00 E-N=-1.987355314276D+02  KE= 7.578591604814D+01
 No NMR shielding tensors so no spin-rotation constants.
 Leave Link  601 at Tue May  7 15:36:24 2024, MaxMem=   104857600 cpu:               0.1 elap:               0.1
 (Enter /opt/software/RI/non-eb/apps/binapps/gaussian/g16c01_em64t_haswell/g16/l701.exe)
 ... and contract with generalized density number  0.
 Compute integral first derivatives.
 Leave Link  701 at Tue May  7 15:36:24 2024, MaxMem=   104857600 cpu:               0.1 elap:               0.1
 (Enter /opt/software/RI/non-eb/apps/binapps/gaussian/g16c01_em64t_haswell/g16/l702.exe)
 L702 exits ... SP integral derivatives will be done elsewhere.
 Leave Link  702 at Tue May  7 15:36:24 2024, MaxMem=   104857600 cpu:               0.0 elap:               0.0
 (Enter /opt/software/RI/non-eb/apps/binapps/gaussian/g16c01_em64t_haswell/g16/l703.exe)
 Integral derivatives from FoFJK, PRISM(SPDF).
 Compute integral first derivatives, UseDBF=F ICtDFT=           0.
 Calling FoFJK, ICntrl=      2127 FMM=F ISym2X=0 I1Cent= 0 IOpClX= 0 NMat=1 NMatS=1 NMatT=0.
 FoFJK:  IHMeth= 1 ICntrl=    2127 DoSepK=F KAlg= 0 I1Cent=           0 FoldK=F
 IRaf=         0 NMat=       1 IRICut=       1 DoRegI=T DoRafI=F ISym2E= 0 IDoP0=0 IntGTp=1.
 FoFCou: FMM=F IPFlag=           0 FMFlag=      100000 FMFlg1=         800
         NFxFlg=           0 DoJE=F BraDBF=F KetDBF=F FulRan=T
         wScrn=  0.000000 ICntrl=      2127 IOpCl=  0 I1Cent=           0 NGrid=           0
         NMat0=    1 NMatS0=      1 NMatT0=    0 NMatD0=    1 NMtDS0=    0 NMtDT0=    0
 Symmetry not used in FoFCou.
 Leave Link  703 at Tue May  7 15:36:25 2024, MaxMem=   104857600 cpu:               0.4 elap:               0.4
 (Enter /opt/software/RI/non-eb/apps/binapps/gaussian/g16c01_em64t_haswell/g16/l716.exe)
 Dipole        =-5.24208792D-01-5.91300187D-01-4.83558301D-01
 -------------------------------------------------------------------
 Center     Atomic                   Forces (Hartrees/Bohr)
 Number     Number              X              Y              Z
 -------------------------------------------------------------------
      1        8          -0.011823434   -0.003261650    0.002433452
      2        1          -0.009387442    0.008019456    0.015980485
      3        1           0.021210876   -0.004757806   -0.018413937
 -------------------------------------------------------------------
 Cartesian Forces:  Max     0.021210876 RMS     0.012363820
 Z-matrix is all fixed cartesians, so copy forces.
 Force constants in Cartesian coordinates:
                1             2             3             4             5
      1  0.535772D+00
      2  0.148950D+00  0.269540D+00
      3 -0.108785D+00  0.271837D+00  0.422088D+00
      4 -0.479776D+00 -0.160995D+00  0.608533D-01  0.484296D+00
      5 -0.188763D+00 -0.826912D-01 -0.167958D-02  0.162781D+00  0.724203D-01
      6  0.240834D-01 -0.175402D-01 -0.369817D-01 -0.610689D-01  0.291948D-02
      7 -0.559953D-01  0.120449D-01  0.479322D-01 -0.451960D-02  0.259819D-01
      8  0.398135D-01 -0.186849D+00 -0.270157D+00 -0.178664D-02  0.102709D-01
      9  0.847020D-01 -0.254296D+00 -0.385106D+00  0.215682D-03 -0.123990D-02
                6             7             8             9
      6  0.387467D-01
      7  0.369855D-01  0.605149D-01
      8  0.146207D-01 -0.380268D-01  0.176578D+00
      9 -0.176501D-02 -0.849177D-01  0.255536D+00  0.386871D+00
 Leave Link  716 at Tue May  7 15:36:25 2024, MaxMem=   104857600 cpu:               0.1 elap:               0.1
 (Enter /opt/software/RI/non-eb/apps/binapps/gaussian/g16c01_em64t_haswell/g16/l103.exe)

 GradGradGradGradGradGradGradGradGradGradGradGradGradGradGradGradGradGrad
 Berny optimization.
 Search for a local minimum.
 Step number   1 out of a maximum of    2
 All quantities printed in internal units (Hartrees-Bohrs-Radians)
 Second derivative matrix not updated -- first step.
 The second derivative matrix:
                          X1        Y1        Z1        X2        Y2
           X1           0.53577
           Y1           0.14895   0.26954
           Z1          -0.10879   0.27184   0.42209
           X2          -0.47978  -0.16099   0.06085   0.48430
           Y2          -0.18876  -0.08269  -0.00168   0.16278   0.07242
           Z2           0.02408  -0.01754  -0.03698  -0.06107   0.00292
           X3          -0.05600   0.01204   0.04793  -0.00452   0.02598
           Y3           0.03981  -0.18685  -0.27016  -0.00179   0.01027
           Z3           0.08470  -0.25430  -0.38511   0.00022  -0.00124
                          Z2        X3        Y3        Z3
           Z2           0.03875
           X3           0.03699   0.06051
           Y3           0.01462  -0.03803   0.17658
           Z3          -0.00177  -0.08492   0.25554   0.38687
 ITU=  0
     Eigenvalues ---    0.13672   0.91716   0.96209
 Angle between quadratic step and forces=  24.96 degrees.
 Linear search not attempted -- first point.
 B after Tr=    -0.019565   -0.019358   -0.014458
         Rot=    1.000000   -0.000213    0.000495   -0.000374 Ang=  -0.08 deg.
 Variable       Old X    -DE/DX   Delta X   Delta X   Delta X     New X
                                 (Linear)    (Quad)   (Total)
    X1        0.46537  -0.01182   0.00000  -0.03215  -0.05248   0.41289
    Y1        0.52106  -0.00326   0.00000  -0.03175  -0.05095   0.47011
    Z1        0.42415   0.00243   0.00000  -0.02368  -0.03750   0.38666
    X2       -1.24674  -0.00939   0.00000  -0.06450  -0.08482  -1.33156
    Y2       -0.06470   0.00802   0.00000   0.07027   0.04961  -0.01509
    Z2        0.62643   0.01598   0.00000   0.12989   0.11413   0.74056
    X3        0.78137   0.02121   0.00000   0.15543   0.13729   0.91867
    Y3       -0.45635  -0.00476   0.00000   0.01953   0.00134  -0.45501
    Z3       -1.05058  -0.01841   0.00000  -0.06292  -0.07664  -1.12722
         Item               Value     Threshold  Converged?
 Maximum Force            0.021211     0.000450     NO
 RMS     Force            0.012364     0.000300     NO
 Maximum Displacement     0.137295     0.001800     NO
 RMS     Displacement     0.077577     0.001200     NO
 Predicted change in Energy=-4.016641D-03
 GradGradGradGradGradGradGradGradGradGradGradGradGradGradGradGradGradGrad

 Leave Link  103 at Tue May  7 15:36:25 2024, MaxMem=   104857600 cpu:               0.0 elap:               0.0
 (Enter /opt/software/RI/non-eb/apps/binapps/gaussian/g16c01_em64t_haswell/g16/l9999.exe)
 Unable to Open any file for archive entry.
 1\1\GINC-NODE016\Force\RB3LYP\6-31+G(d,p)\H2O1\MBDXWYM4\07-May-2024\0\
 \#p b3lyp/6-31+g(d,p) nosymm output=wfn force geom=notest\\WATER_MONOM
 ER0002\\0,1\O,0.24626315,0.27573219,0.22445284\H,-0.65974842,-0.034239
 65,0.33149098\H,0.41348526,-0.24149254,-0.55594383\\Version=ES64L-G16R
 evC.01\HF=-76.4305991\RMSD=5.760e-09\RMSF=1.236e-02\Dipole=-0.5242088,
 -0.5913002,-0.4835583\Quadrupole=0.5363181,-0.6705771,0.134259,-0.1871
 516,-1.0048851,0.2639008\PG=CS [SG(H2O1)]\\@
 The archive entry for this job was punched.

 Writing a WFN file to "/gpfs01/scratch/mbdxwym4/water_monomer_example_dir/WATER_MONOMER.pointsdir/WATER_MONOMER0002.pointdir/WATER_MONOMER0002.wfn"


 THE GREAT THING ABOUT BEING IMPERFECT IS THE JOY IT BRINGS OTHERS.
   -- SIGN OUTSIDE LAKE AGASSIZ JR. HIGH SCHOOL, FARGO, N.D.
 Job cpu time:       0 days  0 hours  0 minutes  2.9 seconds.
 Elapsed time:       0 days  0 hours  0 minutes  2.9 seconds.
 File lengths (MBytes):  RWF=     72 Int=      0 D2E=      0 Chk=      8 Scr=      8
 Normal termination of Gaussian 16 at Tue May  7 15:36:25 2024.
