 WATER_MONOMER0002
GAUSSIAN              5 MOL ORBITALS    126 PRIMITIVES        3 NUCLEI   B3LYP
  O    1    (CENTRE  1)   0.27420298  0.46634862 -0.60872266  CHARGE =  8.0
  H    2    (CENTRE  2)  -1.40790544  0.06916794 -0.17449134  CHARGE =  1.0
  H    3    (CENTRE  3)   1.13370245 -0.53551656  0.78321398  CHARGE =  1.0
CENTRE ASSIGNMENTS    1  1  1  1  1  1  1  1  1  1  1  1  1  1  1  1  1  1  1  1
CENTRE ASSIGNMENTS    1  1  1  1  1  1  1  1  1  1  1  1  1  1  1  1  1  1  1  1
CENTRE ASSIGNMENTS    1  1  1  1  1  1  1  1  1  1  1  1  1  1  1  1  1  1  1  1
CENTRE ASSIGNMENTS    1  1  1  1  1  1  1  1  1  1  1  1  2  2  2  2  2  2  2  2
CENTRE ASSIGNMENTS    2  2  2  2  2  2  2  2  2  2  2  2  2  2  2  2  2  2  2  3
CENTRE ASSIGNMENTS    3  3  3  3  3  3  3  3  3  3  3  3  3  3  3  3  3  3  3  3
CENTRE ASSIGNMENTS    3  3  3  3  3  3
TYPE ASSIGNMENTS      1  1  1  1  1  1  1  1  1  1  1  1  1  1  1  1  2  2  2  3
TYPE ASSIGNMENTS      3  3  4  4  4  2  3  4  2  3  4  2  3  4  5  6  7  8  9 10
TYPE ASSIGNMENTS      5  6  7  8  9 10  5  6  7  8  9 10 11 12 13 17 14 15 18 19
TYPE ASSIGNMENTS     16 20 11 12 13 17 14 15 18 19 16 20  1  1  1  1  1  1  2  3
TYPE ASSIGNMENTS      4  2  3  4  2  3  4  5  6  7  8  9 10  5  6  7  8  9 10  1
TYPE ASSIGNMENTS      1  1  1  1  1  2  3  4  2  3  4  2  3  4  5  6  7  8  9 10
TYPE ASSIGNMENTS      5  6  7  8  9 10
EXPONENTS  0.1533000D+05 0.2299000D+04 0.5224000D+03 0.1473000D+03 0.4755000D+02
EXPONENTS  0.1676000D+02 0.6207000D+01 0.5224000D+03 0.1473000D+03 0.4755000D+02
EXPONENTS  0.1676000D+02 0.6207000D+01 0.6882000D+00 0.1752000D+01 0.2384000D+00
EXPONENTS  0.7376000D-01 0.3446000D+02 0.7749000D+01 0.2280000D+01 0.3446000D+02
EXPONENTS  0.7749000D+01 0.2280000D+01 0.3446000D+02 0.7749000D+01 0.2280000D+01
EXPONENTS  0.7156000D+00 0.7156000D+00 0.7156000D+00 0.2140000D+00 0.2140000D+00
EXPONENTS  0.2140000D+00 0.5974000D-01 0.5974000D-01 0.5974000D-01 0.2314000D+01
EXPONENTS  0.2314000D+01 0.2314000D+01 0.2314000D+01 0.2314000D+01 0.2314000D+01
EXPONENTS  0.6450000D+00 0.6450000D+00 0.6450000D+00 0.6450000D+00 0.6450000D+00
EXPONENTS  0.6450000D+00 0.2140000D+00 0.2140000D+00 0.2140000D+00 0.2140000D+00
EXPONENTS  0.2140000D+00 0.2140000D+00 0.1428000D+01 0.1428000D+01 0.1428000D+01
EXPONENTS  0.1428000D+01 0.1428000D+01 0.1428000D+01 0.1428000D+01 0.1428000D+01
EXPONENTS  0.1428000D+01 0.1428000D+01 0.5000000D+00 0.5000000D+00 0.5000000D+00
EXPONENTS  0.5000000D+00 0.5000000D+00 0.5000000D+00 0.5000000D+00 0.5000000D+00
EXPONENTS  0.5000000D+00 0.5000000D+00 0.3387000D+02 0.5095000D+01 0.1159000D+01
EXPONENTS  0.3258000D+00 0.1027000D+00 0.2526000D-01 0.1407000D+01 0.1407000D+01
EXPONENTS  0.1407000D+01 0.3880000D+00 0.3880000D+00 0.3880000D+00 0.1020000D+00
EXPONENTS  0.1020000D+00 0.1020000D+00 0.1057000D+01 0.1057000D+01 0.1057000D+01
EXPONENTS  0.1057000D+01 0.1057000D+01 0.1057000D+01 0.2470000D+00 0.2470000D+00
EXPONENTS  0.2470000D+00 0.2470000D+00 0.2470000D+00 0.2470000D+00 0.3387000D+02
EXPONENTS  0.5095000D+01 0.1159000D+01 0.3258000D+00 0.1027000D+00 0.2526000D-01
EXPONENTS  0.1407000D+01 0.1407000D+01 0.1407000D+01 0.3880000D+00 0.3880000D+00
EXPONENTS  0.3880000D+00 0.1020000D+00 0.1020000D+00 0.1020000D+00 0.1057000D+01
EXPONENTS  0.1057000D+01 0.1057000D+01 0.1057000D+01 0.1057000D+01 0.1057000D+01
EXPONENTS  0.2470000D+00 0.2470000D+00 0.2470000D+00 0.2470000D+00 0.2470000D+00
EXPONENTS  0.2470000D+00
MO    1     MO 0.0        OCC NO =    2.0000000  ORB. ENERGY =  -19.145170
  0.49676779D+00  0.92589347D+00  0.15699825D+01  0.23760016D+01  0.29638747D+01
  0.25434454D+01  0.97400447D+00  0.31553236D-04  0.33854552D-03  0.12479425D-02
  0.36489108D-02  0.43971149D-02 -0.52967909D-02  0.55511692D-01  0.15066746D-02
  0.13357922D-03 -0.24884466D-02 -0.24129562D-02 -0.16277660D-02 -0.41185002D-02
 -0.39935598D-02 -0.26940318D-02  0.53718091D-02  0.52088479D-02  0.35138580D-02
 -0.15562572D-02 -0.44963007D-04 -0.30213344D-04 -0.50375649D-03  0.61328718D-04
 -0.11142857D-03 -0.18559663D-04  0.50250619D-06 -0.17519866D-05  0.23333295D-02
 -0.15479605D-02 -0.78536903D-03  0.50108122D-03 -0.10466573D-03 -0.26192567D-02
  0.17820553D-03 -0.12171960D-04 -0.16603357D-03  0.47578387D-03 -0.63233584D-03
  0.42220775D-03 -0.49336706D-07  0.13734068D-04 -0.13684731D-04  0.57882526D-04
 -0.82468380D-04  0.80165842D-04 -0.79197202D-03  0.42722559D-03 -0.38044947D-03
  0.10977263D-02 -0.12035686D-02  0.13359539D-02  0.12781897D-02 -0.78108159D-04
 -0.19460551D-03  0.38453372D-04  0.18955420D-03 -0.11706056D-03  0.77451664D-04
 -0.22093905D-03  0.20286034D-03 -0.22341792D-03 -0.34772354D-03  0.14832133D-03
 -0.89370711D-05  0.28441704D-03  0.19807627D-03  0.35723870D-03  0.52674826D-03
 -0.14106820D-02 -0.59086171D-03 -0.13582569D-04 -0.90590139D-03 -0.17717302D-03
  0.18464833D-03 -0.13068869D-02 -0.24913763D-03  0.25772811D-03 -0.13744476D-03
 -0.22879469D-04  0.22656253D-04 -0.20779557D-02  0.10443819D-02  0.10335738D-02
 -0.15370448D-02  0.16783089D-02  0.31352748D-03 -0.61836882D-04  0.30433773D-04
  0.31403110D-04 -0.24662045D-04  0.22209529D-04  0.71541001D-06  0.15037884D-03
  0.27121443D-03  0.39990552D-03  0.63883525D-03  0.15806336D-03  0.11375782D-04
 -0.16952951D-03  0.31548716D-03 -0.43244193D-03 -0.53660237D-04  0.12003324D-03
 -0.16389944D-03 -0.20465925D-04  0.63280750D-05 -0.96657863D-05  0.23268519D-03
  0.35583893D-04 -0.26826909D-03  0.62743784D-03 -0.85478192D-03  0.89521915D-03
  0.24598128D-05 -0.42520451D-05  0.17922324D-05 -0.52565655D-05  0.86388473D-05
 -0.19157216D-04
MO    2     MO 0.0        OCC NO =    2.0000000  ORB. ENERGY =   -1.019806
 -0.10482867D+00 -0.19538341D+00 -0.33130002D+00 -0.50138736D+00 -0.62544121D+00
 -0.53672161D+00 -0.20553586D+00 -0.16162690D-02 -0.17341506D-01 -0.63924055D-01
 -0.18691019D+00 -0.22523586D+00  0.27132047D+00  0.15418379D+00  0.67839412D-01
  0.32345169D-02 -0.16373663D+00 -0.15876945D+00 -0.10710493D+00 -0.17419233D+00
 -0.16890796D+00 -0.11394431D+00  0.22380249D+00  0.21701313D+00  0.14639578D+00
 -0.33074365D-01 -0.40757783D-01  0.52670390D-01 -0.64638663D-03 -0.25287179D-02
  0.33493927D-02 -0.29576653D-04 -0.62009038D-04  0.81381415D-04  0.17857588D-01
 -0.14399515D-01 -0.34580730D-02  0.51565411D-02 -0.15181268D-02 -0.37438884D-01
  0.19517266D-02 -0.25922100D-02  0.64048348D-03  0.18521520D-03  0.75145685D-03
 -0.10845420D-01 -0.42599956D-03  0.21059715D-03  0.21540241D-03 -0.11618080D-03
  0.81512175D-04  0.33608121D-06 -0.39869612D-02  0.35088902D-02 -0.19531428D-02
  0.46822867D-02 -0.40327800D-02  0.43310133D-02  0.72785970D-02 -0.64938906D-02
  0.15284150D-02 -0.50089242D-02  0.22774025D-03  0.71844936D-04  0.68528909D-04
 -0.29446175D-03  0.46772616D-03 -0.56234854D-03 -0.38875899D-03 -0.68326097D-03
  0.35676182D-03  0.24318933D-03  0.26287006D-01  0.47409699D-01  0.69905573D-01
  0.27942780D-01 -0.10674924D-02 -0.68813264D-04  0.32514831D-01  0.63906987D-02
 -0.66700225D-02  0.56097067D-02  0.10734224D-02 -0.11123804D-02 -0.39820443D-03
 -0.94654824D-04  0.10346369D-03  0.66795629D-02 -0.34004072D-02 -0.32791557D-02
  0.44442641D-02 -0.47183261D-02 -0.11975978D-02 -0.15361121D-03  0.77735382D-04
  0.75875833D-04 -0.14124320D-03  0.16020986D-03  0.30771049D-04  0.21299017D-01
  0.38413654D-01  0.56640911D-01  0.20414663D-01 -0.12364094D-02 -0.54877864D-04
 -0.12963555D-01  0.12473679D-01 -0.17461795D-01 -0.20791733D-02  0.21147179D-02
 -0.29538506D-02  0.17819164D-03 -0.18889856D-03  0.26331763D-03 -0.40211009D-03
 -0.64722253D-03  0.10493326D-02 -0.32125857D-02  0.45426436D-02 -0.50421849D-02
 -0.15620560D-04  0.24493176D-05  0.13171242D-04  0.38185852D-04 -0.50943140D-04
 -0.44144575D-04
MO    3     MO 0.0        OCC NO =    2.0000000  ORB. ENERGY =   -0.518937
 -0.38987516D-02 -0.72666319D-02 -0.12321595D-01 -0.18647425D-01 -0.23261192D-01
 -0.19961564D-01 -0.76442184D-02 -0.76523654D-04 -0.82104859D-03 -0.30265397D-02
 -0.88494245D-02 -0.10663987D-01  0.12845902D-01  0.60464474D-02  0.12518864D-01
  0.11393375D-02  0.14018781D+01  0.13593502D+01  0.91700963D+00 -0.25437314D+00
 -0.24665638D+00 -0.16639293D+00  0.42222138D+00  0.40941271D+00  0.27618740D+00
  0.29327861D+00 -0.56265027D-01  0.92414659D-01  0.30875875D-01 -0.72202033D-02
  0.11466293D-01  0.47008382D-03 -0.11071029D-03  0.17562379D-03 -0.49644665D-01
  0.16787516D-01  0.32857149D-01 -0.61104472D-01  0.75804583D-01 -0.42301261D-01
 -0.61929371D-02  0.16868199D-02  0.45061172D-02 -0.95032471D-02  0.12120227D-01
 -0.76264256D-02  0.49374135D-03 -0.26548289D-03 -0.22825846D-03  0.35233671D-03
 -0.37477595D-03 -0.18796284D-03  0.38398177D-02  0.22597986D-02 -0.19922519D-02
 -0.86714241D-02 -0.30127844D-02  0.63927239D-02 -0.28480291D-02 -0.37666114D-02
 -0.41596822D-03 -0.16385752D-01 -0.13812503D-03  0.21240890D-03 -0.62661862D-04
 -0.66618755D-04  0.53562573D-04 -0.16321146D-04  0.48099385D-03 -0.69078927D-03
  0.20430673D-03 -0.16880535D-02 -0.37591297D-01 -0.67797453D-01 -0.99967305D-01
 -0.71086979D-01 -0.78718351D-02  0.16571583D-03 -0.28661877D-01 -0.13941701D-01
  0.17009038D-01 -0.11265709D-01 -0.56051920D-02  0.68541099D-02  0.24018184D-03
 -0.19984817D-03  0.28178617D-03 -0.95240611D-02  0.51712117D-02  0.43528494D-02
 -0.11698822D-01  0.13717221D-01  0.49643283D-02  0.99065821D-04 -0.60897043D-04
 -0.38168778D-04 -0.34058637D-03  0.47426666D-03 -0.42932362D-05  0.35200261D-01
  0.63485121D-01  0.93608774D-01  0.61079539D-01  0.75006064D-02 -0.19162725D-03
 -0.32081341D-02  0.17000354D-01 -0.22958158D-01 -0.75385282D-03  0.71325581D-02
 -0.95990383D-02  0.31319107D-03  0.17233873D-03 -0.21263218D-03 -0.45374993D-02
 -0.14910042D-03  0.46865997D-02 -0.53853143D-02  0.73504007D-02 -0.15196453D-01
 -0.35259454D-03  0.74030268D-04  0.27856427D-03 -0.23895666D-03  0.29799522D-03
 -0.64357682D-03
MO    4     MO 0.0        OCC NO =    2.0000000  ORB. ENERGY =   -0.415114
 -0.38728193D-01 -0.72182984D-01 -0.12239639D+00 -0.18523393D+00 -0.23106472D+00
 -0.19828791D+00 -0.75933734D-01 -0.65381851D-03 -0.70150436D-02 -0.25858771D-01
 -0.75609531D-01 -0.91113161D-01  0.10975546D+00  0.63717344D-01  0.79126573D-01
  0.11417760D-01  0.53910681D+00  0.52275226D+00  0.35264559D+00  0.88738952D+00
  0.86046933D+00  0.58046753D+00 -0.11572481D+01 -0.11221413D+01 -0.75698992D+00
  0.11329012D+00  0.19221446D+00 -0.25087032D+00  0.13622915D-01  0.25507950D-01
 -0.33374714D-01  0.31588939D-03  0.55784097D-03 -0.72908771D-03  0.12088841D-02
  0.88463506D-02 -0.10055235D-01 -0.22583217D-01  0.26351111D-01  0.68004218D-01
  0.54239394D-02 -0.85097430D-03 -0.45729651D-02 -0.70822503D-02  0.95903446D-02
  0.14013445D-01  0.78008157D-03 -0.43814341D-03 -0.34193816D-03 -0.15818424D-04
  0.17609435D-03 -0.30773079D-03  0.18224704D-02 -0.55800884D-02  0.27143851D-02
 -0.26724076D-02  0.34640000D-02 -0.37356107D-02 -0.27950037D-02  0.13276265D-01
 -0.44075445D-02 -0.48486075D-02 -0.34349235D-03 -0.92561180D-04 -0.81011241D-04
  0.35749354D-03 -0.57454055D-03  0.71013683D-03  0.67298351D-03  0.85222409D-03
 -0.46710311D-03 -0.96943665D-03 -0.22128827D-01 -0.39910250D-01 -0.58847640D-01
 -0.50829552D-01 -0.87410587D-02 -0.14853047D-03 -0.19173468D-01  0.62188134D-02
 -0.94441848D-02 -0.11077729D-01  0.25777777D-02 -0.40949559D-02 -0.29646343D-04
  0.40077785D-03 -0.53755486D-03 -0.80570104D-02  0.39419806D-02  0.41150298D-02
  0.28717291D-03 -0.17441041D-02 -0.77633246D-03 -0.20755380D-04  0.72189715D-05
  0.13536409D-04  0.31250804D-03 -0.41662236D-03 -0.80211704D-04 -0.24282780D-01
 -0.43794993D-01 -0.64575692D-01 -0.51577749D-01 -0.10309823D-01 -0.14095605D-03
  0.17794121D-01 -0.25632470D-02  0.44681328D-02  0.10473020D-01 -0.27404765D-02
  0.42811280D-02  0.60462747D-03  0.12200232D-03 -0.12752576D-03 -0.23937406D-02
  0.19925892D-02  0.40115137D-03  0.60536849D-02 -0.87800748D-02  0.40632087D-02
 -0.14657058D-03  0.10927607D-03  0.37294513D-04  0.23975036D-03 -0.36002570D-03
  0.19077806D-03
MO    5     MO 0.0        OCC NO =    2.0000000  ORB. ENERGY =   -0.327719
  0.22754321D-06  0.42410314D-06  0.71912647D-06  0.10883214D-05  0.13575952D-05
  0.11650187D-05  0.44614026D-06 -0.74060410D-09 -0.79461960D-08 -0.29291175D-07
 -0.85645676D-07 -0.10320720D-06  0.12432401D-06  0.45379057D-06 -0.78145028D-05
 -0.92155049D-06 -0.62175040D-01 -0.60288874D-01 -0.40670518D-01  0.14322221D+01
  0.13887737D+01  0.93685850D+00  0.10692872D+01  0.10368489D+01  0.69945213D+00
 -0.14003422D-01  0.32261780D+00  0.24086178D+00 -0.23938479D-02  0.55226667D-01
  0.41225951D-01 -0.89726648D-04  0.20719781D-02  0.15467328D-02  0.10868033D-02
 -0.30522957D-01  0.29436153D-01 -0.23693812D-01 -0.20389496D-01  0.16639446D-01
  0.25023223D-03 -0.88424837D-02  0.85922514D-02 -0.53978698D-02 -0.48157012D-02
  0.49079015D-02  0.10722828D-05 -0.31550320D-03  0.31443091D-03 -0.15457772D-04
 -0.38438148D-04  0.18692498D-03 -0.65660543D-03 -0.17724893D-02  0.27851035D-02
 -0.48261690D-03  0.15159239D-01  0.11146599D-01  0.24524332D-02 -0.98417710D-02
 -0.19501909D-01  0.38771495D-02 -0.96410349D-05  0.54365057D-04  0.28624944D-03
 -0.26648648D-03  0.23613846D-03  0.14934481D-03  0.29540959D-03 -0.39923363D-03
 -0.10080931D-02  0.26554749D-03  0.55889983D-06  0.10079989D-05  0.14862937D-05
  0.11549858D-04 -0.21467443D-05 -0.40293482D-07 -0.90676187D-03  0.20948689D-01
  0.15638911D-01 -0.45025580D-03  0.10448760D-01  0.78014455D-02 -0.56804724D-04
  0.12835557D-02  0.95770860D-03 -0.50799277D-03  0.26056643D-02 -0.20976715D-02
  0.11617576D-01  0.88798187D-02 -0.86397897D-03 -0.50733477D-04  0.21858727D-03
 -0.16785379D-03  0.11588586D-02  0.88148613D-03 -0.62031130D-04  0.45051270D-06
  0.81251821D-06  0.11980576D-05  0.68353069D-05  0.17515535D-05 -0.39098637D-07
 -0.77260443D-03  0.17798693D-01  0.13286319D-01 -0.39112882D-03  0.89360266D-02
  0.66698598D-02 -0.47980283D-04  0.10977955D-02  0.81980217D-03  0.22521629D-03
  0.55655130D-02 -0.57907293D-02 -0.54139945D-02 -0.35231547D-02 -0.36022033D-02
  0.22121630D-04  0.45888211D-03 -0.48100374D-03 -0.53081475D-03 -0.35345074D-03
 -0.30156629D-03
END DATA
 TOTAL ENERGY =      -76.469001149103 THE VIRIAL(-V/T)=   2.00664590
