       3
 i =        0, time =        0.000, E =       -17.1126614014
  O        -0.7906100000        2.5053700000        0.0000000000
  H         0.1793900000        2.5053700000        0.0000000000
  H        -1.1139400000        1.9857700000       -0.7525800000
       3
 i =        1, time =        0.500, E =       -17.1128108558
  O        -0.7924427208        2.5077240792        0.0000042229
  H         0.1660376493        2.4950043212       -0.0196020716
  H        -1.0721207243        1.9574597540       -0.7328843894
       3
 i =        2, time =        1.000, E =       -17.1119679291
  O        -0.7944430174        2.5100190127        0.0001576205
  H         0.1549432125        2.4844798362       -0.0393898601
  H        -1.0308667401        1.9278860571       -0.7150796644
       3
 i =        3, time =        1.500, E =       -17.1106453595
  O        -0.7966177325        2.5122814363        0.0004570977
  H         0.1474964368        2.4742864414       -0.0587681385
  H        -0.9912105408        1.8964447826       -0.6997586206
       3
 i =        4, time =        2.000, E =       -17.1092030872
  O        -0.7989595587        2.5145089816        0.0008636758
  H         0.1445913106        2.4649604020       -0.0771993343
  H        -0.9539302796        1.8629831561       -0.6868940503
       3
 i =        5, time =        2.500, E =       -17.1076742466
  O        -0.8014332944        2.5166679264        0.0013053474
  H         0.1464450535        2.4570637848       -0.0942062655
  H        -0.9195936778        1.8278760108       -0.6758754458
       3
 i =        6, time =        3.000, E =       -17.1058884460
  O        -0.8039703560        2.5186970301        0.0016901658
  H         0.1525827192        2.4511543407       -0.1093743597
  H        -0.8886144280        1.7919464574       -0.6657112784
       3
 i =        7, time =        3.500, E =       -17.1037243454
  O        -0.8064748204        2.5205199049        0.0019230447
  H         0.1619854287        2.4477478840       -0.1223577490
  H        -0.8613067974        1.7562751537       -0.6552844053
       3
 i =        8, time =        4.000, E =       -17.1012728773
  O        -0.8088369884        2.5220588479        0.0019197654
  H         0.1733268103        2.4472802048       -0.1328874063
  H        -0.8379073767        1.7219983643       -0.6435589012
       3
 i =        9, time =        4.500, E =       -17.0988338646
  O        -0.8109481707        2.5232445057        0.0016152037
  H         0.1852059320        2.4500789559       -0.1407797564
  H        -0.8185701074        1.6901671551       -0.6296959369
       3
 i =       10, time =        5.000, E =       -17.0968078497
  O        -0.8127121862        2.5240205954        0.0009662160
  H         0.1963199957        2.4563507920       -0.1459394187
  H        -0.8033720090        1.6616627083       -0.6130905752
       3
 i =       11, time =        5.500, E =       -17.0955788779
  O        -0.8140523101        2.5243456244       -0.0000488241
  H         0.2055651354        2.4661825627       -0.1483559309
  H        -0.7923162323        1.6371722242       -0.5933624792
       3
 i =       12, time =        6.000, E =       -17.0954248603
  O        -0.8149143088        2.5241929901       -0.0014320193
  H         0.2120833794        2.4795508853       -0.1480964212
  H        -0.7853337847        1.6171767987       -0.5703328544
       3
 i =       13, time =        6.500, E =       -17.0964631303
  O        -0.8152671154        2.5235507749       -0.0031681520
  H         0.2152767038        2.4963345259       -0.1452969329
  H        -0.7822867663        1.6019456429       -0.5440024002
       3
 i =       14, time =        7.000, E =       -17.0986274864
  O        -0.8151025915        2.5224218157       -0.0052264641
  H         0.2148075684        2.5163282691       -0.1401541239
  H        -0.7829696846        1.5915297849       -0.5145328516
       3
 i =       15, time =        7.500, E =       -17.1016587878
  O        -0.8144353707        2.5208249032       -0.0075620208
  H         0.2105998884        2.5392574123       -0.1329182658
  H        -0.7871088054        1.5857334284       -0.4822319135
       3
 i =       16, time =        8.000, E =       -17.1051142070
  O        -0.8133029013        2.5187972002       -0.0101167765
  H         0.2028417131        2.5647871492       -0.1238868006
  H        -0.7943605296        1.5840711319       -0.4475562246
       3
 i =       17, time =        8.500, E =       -17.1084232621
  O        -0.8117651726        2.5163973296       -0.0128208788
  H         0.1919869639        2.5925309027       -0.1133954759
  H        -0.8043104777        1.5857172907       -0.4110969327
       3
 i =       18, time =        9.000, E =       -17.1109941886
  O        -0.8099033651        2.5137087103       -0.0155952554
  H         0.1787481107        2.6220709258       -0.1018057664
  H        -0.8164815013        1.5894663989       -0.3735592764
       3
 i =       19, time =        9.500, E =       -17.1123976769
  O        -0.8078166167        2.5108405501       -0.0183565443
  H         0.1640629863        2.6529793359       -0.0894855694
  H        -0.8303514553        1.5937422876       -0.3357119613
       3
 i =       20, time =       10.000, E =       -17.1125528692
  O        -0.8056155968        2.5079209127       -0.0210252193
  H         0.1490212532        2.6848275284       -0.0767848107
  H        -0.8453788652        1.5967121654       -0.2982914885
       3
 i =       21, time =       10.500, E =       -17.1118050502
  O        -0.8034132166        2.5050826588       -0.0235363956
  H         0.1347378264        2.7172049147       -0.0640063716
  H        -0.8610263020        1.5965521951       -0.2618854990
       3
 i =       22, time =       11.000, E =       -17.1107277274
  O        -0.8013138717        2.5024392171       -0.0258505713
  H         0.1221875580        2.7497070550       -0.0513794086
  H        -0.8767638984        1.5918468747       -0.2268091441
       3
 i =       23, time =       11.500, E =       -17.1097452354
  O        -0.7994033464        2.5000591727       -0.0279592096
  H         0.1120393334        2.7819049952       -0.0390444059
  H        -0.8920463700        1.5819944323       -0.1930664779
       3
 i =       24, time =       12.000, E =       -17.1088709089
  O        -0.7977430287        2.4979546586       -0.0298798867
  H         0.1045455928        2.8133136989       -0.0270568552
  H        -0.9062836850        1.5674130963       -0.1603968336
       3
 i =       25, time =       12.500, E =       -17.1078065179
  O        -0.7963689153        2.4960875444       -0.0316464266
  H         0.0995231473        2.8433587889       -0.0154043037
  H        -0.9188353820        1.5494285742       -0.1284200544
       3
 i =       26, time =       13.000, E =       -17.1062852273
  O        -0.7952944055        2.4943900715       -0.0332974234
  H         0.0964369991        2.8713868092       -0.0040303276
  H        -0.9290436090        1.5299136114       -0.0967711420
       3
 i =       27, time =       13.500, E =       -17.1043083151
  O        -0.7945158930        2.4927884020       -0.0348678698
  H         0.0945446491        2.8967065641        0.0071459157
  H        -0.9362913991        1.5108711717       -0.0651849342
       3
 i =       28, time =       14.000, E =       -17.1021689802
  O        -0.7940189875        2.4912186909       -0.0363854895
  H         0.0930500699        2.9186439444        0.0182162489
  H        -0.9400609045        1.4941162711       -0.0335248136
       3
 i =       29, time =       14.500, E =       -17.1003150250
  O        -0.7937840402        2.4896337887       -0.0378705868
  H         0.0912265774        2.9366133705        0.0292781951
  H        -0.9399708007        1.4811016560       -0.0017543400
       3
 i =       30, time =       15.000, E =       -17.0991743392
  O        -0.7937903253        2.4880036701       -0.0393414140
  H         0.0884958217        2.9501698502        0.0404320848
  H        -0.9357933686        1.4728592156        0.0300895959
       3
 i =       31, time =       15.500, E =       -17.0990388598
  O        -0.7940186558        2.4863132594       -0.0408158059
  H         0.0844683122        2.9590420319        0.0517793136
  H        -0.9274537325        1.4700043411        0.0619319153
       3
 i =       32, time =       16.000, E =       -17.0999950110
  O        -0.7944528805        2.4845597791       -0.0423117189
  H         0.0789598692        2.9631543935        0.0634208574
  H        -0.9150230600        1.4727597345        0.0936921544
       3
 i =       33, time =       16.500, E =       -17.1019087086
  O        -0.7950808354        2.4827510570       -0.0438470605
  H         0.0719955870        2.9626410396        0.0754552207
  H        -0.8987072308        1.4809726486        0.1253019226
       3
 i =       34, time =       17.000, E =       -17.1044505475
  O        -0.7958949302        2.4809047951       -0.0454430454
  H         0.0638078219        2.9578522555        0.0879775549
  H        -0.8788347168        1.4941219576        0.1567381460
       3
 i =       35, time =       17.500, E =       -17.1071560551
  O        -0.7968925015        2.4790484069       -0.0471270216
  H         0.0548274447        2.9493534011        0.1010798975
  H        -0.8558407615        1.5113247993        0.1880452914
       3
 i =       36, time =       18.000, E =       -17.1095489683
  O        -0.7980757948        2.4772182157       -0.0489339012
  H         0.0456617432        2.9379112605        0.1148504013
  H        -0.8302409718        1.5313672853        0.2193557743
       3
 i =       37, time =       18.500, E =       -17.1112810874
  O        -0.7994505104        2.4754562558       -0.0509050098
  H         0.0370470467        2.9244607328        0.1293662452
  H        -0.8025989763        1.5527931140        0.2509044353
       3
 i =       38, time =       19.000, E =       -17.1122427802
  O        -0.8010219595        2.4738036669       -0.0530853750
  H         0.0297654441        2.9100462363        0.1446771380
  H        -0.7735007746        1.5740753004        0.2829924023
       3
 i =       39, time =       19.500, E =       -17.1125614420
  O        -0.8027876272        2.4722911242       -0.0555156018
  H         0.0245216409        2.8957383530        0.1607774084
  H        -0.7435336877        1.5938575047        0.3159156433
       3
 i =       40, time =       20.000, E =       -17.1124316988
  O        -0.8047267774        2.4709294769       -0.0582208011
  H         0.0218023205        2.8825337195        0.1775679214
  H        -0.7132884149        1.6112135576        0.3498425077
       3
 i =       41, time =       20.500, E =       -17.1119221313
  O        -0.8067901211        2.4697056702       -0.0611977344
  H         0.0217576331        2.8712648261        0.1948219666
  H        -0.6833940628        1.6258115116        0.3846840643
       3
 i =       42, time =       21.000, E =       -17.1109147466
  O        -0.8088941449        2.4685867191       -0.0644049216
  H         0.0241476954        2.8625401669        0.2121689733
  H        -0.6545354286        1.6379059781        0.4200366038
       3
 i =       43, time =       21.500, E =       -17.1092310398
  O        -0.8109249966        2.4675293506       -0.0677604548
  H         0.0283783301        2.8567315481        0.2291046995
  H        -0.6274471645        1.6481668017        0.4552060277
       3
 i =       44, time =       22.000, E =       -17.1068320567
  O        -0.8127527928        2.4664896637       -0.0711492383
  H         0.0336117074        2.8540021753        0.2450309587
  H        -0.6028768540        1.6574396214        0.4893242082
       3
 i =       45, time =       22.500, E =       -17.1039119644
  O        -0.8142509074        2.4654292323       -0.0744382378
  H         0.0389085702        2.8543564946        0.2593140066
  H        -0.5815189497        1.6665441836        0.5214799234
       3
 i =       46, time =       23.000, E =       -17.1008585621
  O        -0.8153117943        2.4643180485       -0.0774950664
  H         0.0433574121        2.8576936744        0.2713463989
  H        -0.5639634033        1.6761511033        0.5508316697
       3
 i =       47, time =       23.500, E =       -17.0981316582
  O        -0.8158547482        2.4631361197       -0.0802033740
  H         0.0461668459        2.8638531890        0.2805942036
  H        -0.5506691978        1.6867347894        0.5766808974
       3
 i =       48, time =       24.000, E =       -17.0961503099
  O        -0.8158269276        2.4618743213       -0.0824713403
  H         0.0467171246        2.8726482075        0.2866251141
  H        -0.5419534351        1.6985742081        0.5984956213
       3
 i =       49, time =       24.500, E =       -17.0952142321
  O        -0.8152011864        2.4605343541       -0.0842342348
  H         0.0445795309        2.8838882983        0.2891234409
  H        -0.5379913072        1.7117733177        0.6159275191
       3
 i =       50, time =       25.000, E =       -17.0954617207
  O        -0.8139736830        2.4591280237       -0.0854540715
  H         0.0395180170        2.8973944248        0.2878942939
  H        -0.5388235013        1.7262798192        0.6288157176
       3
 i =       51, time =       25.500, E =       -17.0968544555
  O        -0.8121625355        2.4576763283       -0.0861188371
  H         0.0314828085        2.9130093884        0.2828642234
  H        -0.5443609966        1.7418952305        0.6371932125
       3
 i =       52, time =       26.000, E =       -17.0991788404
  O        -0.8098077587        2.4562085628       -0.0862426226
  H         0.0206000993        2.9306043592        0.2740808322
  H        -0.5543843866        1.7582772980        0.6413057559
       3
 i =       53, time =       26.500, E =       -17.1020655990
  O        -0.8069715809        2.4547613622       -0.0858669283
  H         0.0071564723        2.9500811000        0.2617123704
  H        -0.5685388396        1.7749317413        0.6416427250
       3
 i =       54, time =       27.000, E =       -17.1050421179
  O        -0.8037370523        2.4533773070       -0.0850624376
  H        -0.0084212464        2.9713693908        0.2460443388
  H        -0.5863326790        1.7912062623        0.6389724777
       3
 i =       55, time =       27.500, E =       -17.1076335396
  O        -0.8002040857        2.4521034919       -0.0839292983
  H        -0.0255991339        2.9944132662        0.2274730201
  H        -0.6071485166        1.8062952673        0.6343651824
       3
 i =       56, time =       28.000, E =       -17.1095081086
  O        -0.7964821922        2.4509897811       -0.0825935940
  H        -0.0437891446        3.0191555861        0.2064882043
  H        -0.6302727884        1.8192742309        0.6291726365
       3
 i =       57, time =       28.500, E =       -17.1106072539
  O        -0.7926796940        2.4500850293       -0.0811975354
  H        -0.0624124646        3.0455059078        0.1836455776
  H        -0.6549514456        1.8292032418        0.6249245406
       3
 i =       58, time =       29.000, E =       -17.1111551449
  O        -0.7888917297        2.4494310057       -0.0798821560
  H        -0.0809750154        3.0732968703        0.1595377192
  H        -0.6804689259        1.8353086122        0.6231121902
       3
 i =       59, time =       29.500, E =       -17.1114695855
  O        -0.7851904083        2.4490528767       -0.0787650797
  H        -0.0991350458        3.1022427249        0.1347652631
  H        -0.7062253354        1.8372211729        0.6248869127
       3
 i =       60, time =       30.000, E =       -17.1116723609
  O        -0.7816206244        2.4489494597       -0.0779207988
  H        -0.1167453974        3.1319150390        0.1099066188
  H        -0.7317577369        1.8351794789        0.6307784914
       3
 i =       61, time =       30.500, E =       -17.1115686201
  O        -0.7782026565        2.4490899555       -0.0773723865
  H        -0.1338536064        3.1617390766        0.0855026877
  H        -0.7567054544        1.8300862185        0.6405727185
       3
 i =       62, time =       31.000, E =       -17.1108303135
  O        -0.7749392248        2.4494203732       -0.0770984154
  H        -0.1506605222        3.1910284688        0.0620566899
  H        -0.7807554939        1.8233686000        0.6534165155
       3
 i =       63, time =       31.500, E =       -17.1092896158
  O        -0.7718229494        2.4498761384       -0.0770503877
  H        -0.1674593069        3.2190486215        0.0400330230
  H        -0.8035949355        1.8167079535        0.6680848014
       3
 i =       64, time =       32.000, E =       -17.1070933680
  O        -0.7688418107        2.4503945733       -0.0771716739
  H        -0.1845696838        3.2450818850        0.0198521711
  H        -0.8248983511        1.8117614483        0.6832718667
       3
 i =       65, time =       32.500, E =       -17.1046468944
  O        -0.7659822774        2.4509228232       -0.0774111627
  H        -0.2022854430        3.2685001014        0.0018918553
  H        -0.8443546640        1.8099626944        0.6978058157
       3
 i =       66, time =       33.000, E =       -17.1024478530
  O        -0.7632298982        2.4514205734       -0.0777302706
  H        -0.2208365471        3.2888199193       -0.0135184043
  H        -0.8616987450        1.8124227347        0.7107635646
       3
 i =       67, time =       33.500, E =       -17.1009299899
  O        -0.7605709037        2.4518592914       -0.0781048374
  H        -0.2403676548        3.3057353350       -0.0261065471
  H        -0.8767346671        1.8199032475        0.7215073108
       3
 i =       68, time =       34.000, E =       -17.1003656069
  O        -0.7579916543        2.4522202371       -0.0785247637
  H        -0.2609306549        3.3191427528       -0.0356683134
  H        -0.8893505816        1.8328257199        0.7296862152
       3
 i =       69, time =       34.500, E =       -17.1008164742
  O        -0.7554782441        2.4524922390       -0.0789932230
  H        -0.2824883505        3.3291539864       -0.0420730905
  H        -0.8995308853        1.8512891143        0.7352324404
       3
 i =       70, time =       35.000, E =       -17.1021287213
  O        -0.7530159843        2.4526705475       -0.0795265488
  H        -0.3049192744        3.3361015692       -0.0452679618
  H        -0.9073663486        1.8750858663        0.7383674437
       3
 i =       71, time =       35.500, E =       -17.1039673313
  O        -0.7505899091        2.4527562789       -0.0801549546
  H        -0.3280237048        3.3405356763       -0.0452813225
  H        -0.9130612717        1.9037157894        0.7396195784
       3
 i =       72, time =       36.000, E =       -17.1059021313
  O        -0.7481834743        2.4527563478       -0.0809235290
  H        -0.3515390889        3.3432058748       -0.0422238889
  H        -0.9169381689        1.9363972637        0.7398434261
       3
 i =       73, time =       36.500, E =       -17.1075519172
  O        -0.7457757978        2.4526833349       -0.0818915076
  H        -0.3751684602        3.3450191879       -0.0362877126
  H        -0.9194352970        1.9721111772        0.7402133238
       3
 i =       74, time =       37.000, E =       -17.1087415772
  O        -0.7433429036        2.4525546031       -0.0831272025
  H        -0.3986110164        3.3469647799       -0.0277438284
  H        -0.9210846547        2.0096962144        0.7421467917
       3
 i =       75, time =       37.500, E =       -17.1095930329
  O        -0.7408592598        2.4523899454       -0.0846953236
  H        -0.4216011537        3.3500002981       -0.0169397840
  H        -0.9224607222        2.0479899408        0.7471116861
       3
 i =       76, time =       38.000, E =       -17.1104129928
  O        -0.7383003058        2.4522088009       -0.0866365415
  H        -0.4439499301        3.3549123278       -0.0043000098
  H        -0.9240965883        2.0860137720        0.7563109311
       3
 i =       77, time =       38.500, E =       -17.1113914359
  O        -0.7356484583        2.4520292798       -0.0889443251
  H        -0.4655711741        3.3621825947        0.0096731301
  H        -0.9263865043        2.1231040936        0.7703231010
       3
 i =       78, time =       39.000, E =       -17.1123571821
  O        -0.7328984269        2.4518711710       -0.0915501701
  H        -0.4864768013        3.3719008713        0.0244006746
  H        -0.9295138693        2.1589433188        0.7888620359
       3
 i =       79, time =       39.500, E =       -17.1128365643
  O        -0.7300593293        2.4517619326       -0.0943267775
  H        -0.5067499273        3.3837564613        0.0392390873
  H        -0.9334395292        2.1934508707        0.8107962111
       3
 i =       80, time =       40.000, E =       -17.1123740677
  O        -0.7271533185        2.4517415224       -0.0971087365
  H        -0.5265080222        3.3971134401        0.0535032148
  H        -0.9379510026        2.2266277420        0.8344168349
       3
 i =       81, time =       40.500, E =       -17.1108106534
  O        -0.7242115825        2.4518628067       -0.0997204510
  H        -0.5458591996        3.4111392348        0.0664982902
  H        -0.9427428235        2.2584252791        0.8578185620
       3
 i =       82, time =       41.000, E =       -17.1083537363
  O        -0.7212693351        2.4521871487       -0.1020006687
  H        -0.5648705169        3.4249460505        0.0775567735
  H        -0.9474898487        2.2886868375        0.8792227402
       3
 i =       83, time =       41.500, E =       -17.1054534121
  O        -0.7183624677        2.4527779072       -0.1038157766
  H        -0.5835540918        3.4377115086        0.0860707009
  H        -0.9518968760        2.3171600626        0.8971678009
       3
 i =       84, time =       42.000, E =       -17.1026339077
  O        -0.7155254849        2.4536943032       -0.1050650709
  H        -0.6018716476        3.4487571183        0.0915163001
  H        -0.9557227821        2.3435223416        0.9105827160
       3
 i =       85, time =       42.500, E =       -17.1003615672
  O        -0.7127904091        2.4549864076       -0.1056789895
  H        -0.6197454521        3.4575953352        0.0934670982
  H        -0.9587878106        2.3674214755        0.9187884097
       3
 i =       86, time =       43.000, E =       -17.0989609763
  O        -0.7101864413        2.4566921908       -0.1056166408
  H        -0.6370682438        3.4639492428        0.0915974482
  H        -0.9609753540        2.3885095730        0.9214678193
       3
 i =       87, time =       43.500, E =       -17.0985821359
  O        -0.7077398138        2.4588357160       -0.1048631250
  H        -0.6537159090        3.4677561167        0.0856811861
  H        -0.9622319085        2.4064578846        0.9186387595
       3
 i =       88, time =       44.000, E =       -17.0991952225
  O        -0.7054736483        2.4614257492       -0.1034280731
  H        -0.6695630899        3.4691625051        0.0755882821
  H        -0.9625700731        2.4209724640        0.9106414402
       3
 i =       89, time =       44.500, E =       -17.1006002919
  O        -0.7034077388        2.4644542233       -0.1013458004
  H        -0.6844994335        3.4685125705        0.0612806966
  H        -0.9620764223        2.4318121905        0.8981462869
       3
 i =       90, time =       45.000, E =       -17.1024580961
  O        -0.7015582153        2.4678949778       -0.0986777905
  H        -0.6984408931        3.4663280819        0.0428085291
  H        -0.9609239703        2.4388035695        0.8821757999
       3
 i =       91, time =       45.500, E =       -17.1043606248
  O        -0.6999365318        2.4717028775       -0.0955169102
  H        -0.7113408988        3.4632726394        0.0203065593
  H        -0.9593866321        2.4418548008        0.8641283805
       3
 i =       92, time =       46.000, E =       -17.1059468157
  O        -0.6985473370        2.4758126184       -0.0919919663
  H        -0.7232011513        3.4600919120       -0.0060054480
  H        -0.9578481005        2.4409711168        0.8457700131
       3
 i =       93, time =       46.500, E =       -17.1070623419
  O        -0.6973833948        2.4801405084       -0.0882675176
  H        -0.7340783127        3.4575248557       -0.0358175601
  H        -0.9567910390        2.4362669793        0.8291445436
       3
 i =       94, time =       47.000, E =       -17.1078732503
  O        -0.6964189169        2.4845938775       -0.0845314370
  H        -0.7440857524        3.4561883608       -0.0687365076
  H        -0.9567482246        2.4279730346        0.8163506851
       3
 i =       95, time =       47.500, E =       -17.1087677152
  O        -0.6956074039        2.4890886591       -0.0809634208
  H        -0.7533841508        3.4564560468       -0.1042804255
  H        -0.9582038670        2.4164430749        0.8091581886
       3
 i =       96, time =       48.000, E =       -17.1100167568
  O        -0.6948927073        2.4935661425       -0.0776944701
  H        -0.7621651364        3.4583684798       -0.1418675825
  H        -0.9614643485        2.4021699871        0.8085575288
       3
 i =       97, time =       48.500, E =       -17.1114356226
  O        -0.6942290355        2.4979969798       -0.0747803013
  H        -0.7706294309        3.4616088934       -0.1808248472
  H        -0.9665540958        2.3858100252        0.8144401594
       3
 i =       98, time =       49.000, E =       -17.1124293780
  O        -0.6935924892        2.5023740145       -0.0722018459
  H        -0.7789690755        3.4655571024       -0.2203868412
  H        -0.9731991786        2.3681899552        0.8256032142
       3
 i =       99, time =       49.500, E =       -17.1124027945
  O        -0.6929798770        2.5067027146       -0.0698887765
  H        -0.7873557827        3.4694027029       -0.2597322632
  H        -0.9809108611        2.3502694898        0.8400858383
       3
 i =      100, time =       50.000, E =       -17.1111410982
  O        -0.6924001464        2.5109938775       -0.0677508316
  H        -0.7959373413        3.4722804231       -0.2980134870
  H        -0.9891185739        2.3330641505        0.8556475386
       3
 i =      101, time =       50.500, E =       -17.1088970344
  O        -0.6918663903        2.5152589618       -0.0657030499
  H        -0.8048396486        3.4733911099       -0.3344146643
  H        -0.9972890519        2.3175535025        0.8701780078
       3
 i =      102, time =       51.000, E =       -17.1062178435
  O        -0.6913898248        2.5195070275       -0.0636794592
  H        -0.8141728351        3.4720892695       -0.3681885360
  H        -1.0049986428        2.3046052475        0.8819360487
       3
 i =      103, time =       51.500, E =       -17.1037197490
  O        -0.6909775367        2.5237425163       -0.0616372801
  H        -0.8240385854        3.4679342047       -0.3987035983
  H        -1.0119615084        2.2949260922        0.8896370019
       3
 i =      104, time =       52.000, E =       -17.1019038524
  O        -0.6906306270        2.5279615429       -0.0595556164
  H        -0.8345366841        3.4607104591       -0.4254711415
  H        -1.0180303170        2.2890398395        0.8924544719
       3
 i =      105, time =       52.500, E =       -17.1010609281
  O        -0.6903435711        2.5321523424       -0.0574319247
  H        -0.8457726067        3.4504324560       -0.4481647029
  H        -1.0231886408        2.2872821123        0.8899921170
       3
 i =      106, time =       53.000, E =       -17.1012305891
  O        -0.6901034565        2.5362937800       -0.0552788545
  H        -0.8578633808        3.4373419030       -0.4666431854
  H        -1.0275469883        2.2897993484        0.8822634170
       3
 i =      107, time =       53.500, E =       -17.1021963702
  O        -0.6898888249        2.5403586816       -0.0531223653
  H        -0.8709448253        3.4219016091       -0.4809637637
  H        -1.0313487555        2.2965454336        0.8696969801
       3
 i =      108, time =       54.000, E =       -17.1035269573
  O        -0.6896669153        2.5443145384       -0.0510018262
  H        -0.8851781398        3.4047864888       -0.4913891940
  H        -1.0349879470        2.3072761930        0.8531672068
       3
 i =      109, time =       54.500, E =       -17.1046866769
  O        -0.6893916278        2.5481266980       -0.0489711660
  H        -0.9007576320        3.3868602175       -0.4983908971
  H        -1.0390337969        2.3215476580        0.8340304197
       3
 i =      110, time =       55.000, E =       -17.1052454437
  O        -0.6890006771        2.5517614635       -0.0471002288
  H        -0.9179157264        3.3691319661       -0.5026303492
  H        -1.0442476052        2.3387337519        0.8141270618
       3
 i =      111, time =       55.500, E =       -17.1051548188
  O        -0.6884187583        2.5551894429       -0.0454716531
  H        -0.9369159189        3.3526669108       -0.5049080771
  H        -1.0515606034        2.3580847636        0.7956733581
       3
 i =      112, time =       56.000, E =       -17.1049064832
  O        -0.6875644616        2.5583882272       -0.0441690364
  H        -0.9580231095        3.3384501750       -0.5060738046
  H        -1.0619720389        2.3788370350        0.7809622488
       3