 WATER_MONOMER0000
GAUSSIAN              5 MOL ORBITALS     46 PRIMITIVES        3 NUCLEI   B3LYP
O      1    (CENTRE  1)  -0.06328188 -0.88230871 -0.00802954  CHARGE = 8.0
H      2    (CENTRE  2)  -0.95295536  0.38291891  1.07137737  CHARGE = 1.0
H      3    (CENTRE  3)   1.01623724  0.49938980 -1.06334783  CHARGE = 1.0
CENTRE ASSIGNMENTS    1  1  1  1  1  1  1  1  1  1  1  1  1  1  1  1  1  1  1  1
CENTRE ASSIGNMENTS    1  1  1  1  1  1  1  1  1  1  1  1  2  2  2  2  2  2  2  3
CENTRE ASSIGNMENTS    3  3  3  3  3  3
TYPE ASSIGNMENTS      1  1  1  1  1  1  1  1  1  2  2  2  3  3  3  4  4  4  1  2
TYPE ASSIGNMENTS      3  4  1  2  3  4  5  6  7  8  9 10  1  1  1  1  2  3  4  1
TYPE ASSIGNMENTS      1  1  1  2  3  4
EXPONENTS  5.4846720D+03 8.2523490D+02 1.8804700D+02 5.2964500D+01 1.6897570D+01
EXPONENTS  5.7996350D+00 1.5539620D+01 3.5999340D+00 1.0137620D+00 1.5539620D+01
EXPONENTS  3.5999340D+00 1.0137620D+00 1.5539620D+01 3.5999340D+00 1.0137620D+00
EXPONENTS  1.5539620D+01 3.5999340D+00 1.0137620D+00 2.7000580D-01 2.7000580D-01
EXPONENTS  2.7000580D-01 2.7000580D-01 8.4500000D-02 8.4500000D-02 8.4500000D-02
EXPONENTS  8.4500000D-02 8.0000000D-01 8.0000000D-01 8.0000000D-01 8.0000000D-01
EXPONENTS  8.0000000D-01 8.0000000D-01 1.8731140D+01 2.8253940D+00 6.4012170D-01
EXPONENTS  1.6127780D-01 1.1000000D+00 1.1000000D+00 1.1000000D+00 1.8731140D+01
EXPONENTS  2.8253940D+00 6.4012170D-01 1.6127780D-01 1.1000000D+00 1.1000000D+00
EXPONENTS  1.1000000D+00
MO    1                   OCC NO =    2.0000000  ORB. ENERGY =  -19.183769
  8.25745340D-01  1.51981220D+00  2.45934310D+00  3.23287530D+00  2.77281840D+00
  9.48073690D-01 -1.59589930D-02 -7.12087170D-03  2.10280300D-02 -4.51429400D-05
 -3.47802020D-05 -1.52703820D-05  3.65470120D-03  2.81575020D-03  1.23626600D-03
  3.67945680D-04  2.83482310D-04  1.24464000D-04  3.03246820D-03 -2.97305600D-05
 -2.03562450D-04  1.46277290D-05 -1.40598950D-04 -2.42223740D-07  4.36122830D-05
  4.06783070D-06 -8.90656370D-03 -8.98174380D-03 -8.90438340D-03 -1.70824540D-04
  1.36425860D-04  1.60832740D-04  7.66180150D-05  1.29958650D-04  1.47953330D-04
 -1.51952510D-04 -2.51258300D-05  1.14087800D-04  3.73186700D-05  9.34456410D-05
  1.58501490D-04  1.80448350D-04 -9.27681840D-05 -2.10351910D-04 -2.07914650D-04
  2.10984660D-04
MO    2                   OCC NO =    2.0000000  ORB. ENERGY =   -1.000442
 -1.76180360D-01 -3.24265910D-01 -5.24723460D-01 -6.89763670D-01 -5.91606290D-01
 -2.02280240D-01 -2.96037100D-01 -1.32091180D-01  3.90067020D-01 -1.62228790D-02
 -1.24988530D-02 -5.48766980D-03  3.58326270D-01  2.76071070D-01  1.21210070D-01
  4.89244960D-02  3.76936870D-02  1.65495590D-02  1.18342140D-01  2.41029610D-04
  1.34844550D-02  9.13617820D-04  2.03453160D-03 -1.00883780D-04  6.13818320D-04
  1.63423370D-04 -4.11216610D-03  6.24350650D-03 -3.18855430D-03  1.77084650D-03
 -1.12208550D-02  7.88573700D-04  3.24315420D-02  5.50100330D-02  6.26269780D-02
  4.17973270D-04  1.99812470D-02 -2.18258160D-02 -2.36676830D-02  2.56278150D-02
  4.34696240D-02  4.94886310D-02  1.38398200D-03 -1.92286600D-02 -1.79954180D-02
  1.93746320D-02
MO    3                   OCC NO =    2.0000000  ORB. ENERGY =   -0.497418
  8.30327650D-03  1.52824610D-02  2.47299070D-02  3.25081550D-02  2.78820560D-02
  9.53334840D-03  1.36883410D-02  6.10771120D-03 -1.80361530D-02 -1.09190280D+00
 -8.41252220D-01 -3.69355040D-01  8.83345370D-02  6.80569990D-02  2.98806880D-02
  1.19702720D+00  9.22244900D-01  4.04915180D-01 -1.16711710D-02 -5.00285430D-02
  2.26019750D-03  5.46892330D-02 -8.07813720D-04 -8.51194880D-04  1.92022010D-04
  9.43888080D-04 -1.43827400D-03  7.33932200D-04  2.02199790D-03 -3.87493810D-02
 -7.11553260D-04  4.23718660D-02  5.13685230D-02  8.71307380D-02  9.91952660D-02
  2.78158760D-02  3.87110780D-03 -2.50423540D-02 -6.40075250D-03 -4.81494740D-02
 -8.16706210D-02 -9.29791160D-02 -2.82099160D-02  6.59473670D-03  2.54845850D-02
 -4.96028490D-03
MO    4                   OCC NO =    2.0000000  ORB. ENERGY =   -0.408131
  6.98820980D-02  1.28620370D-01  2.08132030D-01  2.73595380D-01  2.34661170D-01
  8.02346390D-02  1.17868310D-01  5.25926110D-02 -1.55306680D-01  1.15135090D-01
  8.87053820D-02  3.89464410D-02  1.67924270D+00  1.29376600D+00  5.68032950D-01
  2.10608710D-02  1.62262660D-02  7.12420470D-03 -8.85063430D-02  6.33719360D-03
  8.42246790D-02  4.43716520D-04 -6.83833450D-03  2.33656040D-04  4.00967030D-03
  9.52312500D-05 -7.63326490D-03  3.65166550D-02 -7.62915010D-03  3.66380100D-03
  1.36443940D-04  3.72573870D-03  3.20517160D-02  5.43657760D-02  6.18935140D-02
  2.13430280D-02  1.63011420D-02  1.30541710D-02 -1.66169070D-02  3.67539930D-02
  6.23417280D-02  7.09738540D-02  2.61828920D-02 -1.67129890D-02  7.26031230D-03
  1.88373900D-02
MO    5                   OCC NO =    2.0000000  ORB. ENERGY =   -0.317960
 -1.94850260D-09 -3.58628500D-09 -5.80328600D-09 -7.62858190D-09 -6.54299040D-09
 -2.23715950D-09 -3.63295170D-09 -1.62101600D-09  4.78688190D-09  1.48151980D+00
  1.14143120D+00  5.01149760D-01 -1.18637460D-01 -9.14037710D-02 -4.01311790D-02
  1.36016570D+00  1.04793430D+00  4.60099620D-01  7.65302910D-10  8.54076830D-02
 -6.83929920D-03  7.84117740D-02 -1.00159690D-08  6.18784930D-03 -4.95515120D-04
  5.68099160D-03  3.25762150D-04 -3.11348090D-03  2.78772020D-03  3.88544000D-02
  3.33551930D-03  3.54525590D-02  3.32136310D-10  5.63366050D-10  6.41372340D-10
  1.33775200D-08  2.59217920D-02 -2.07577280D-03  2.37984830D-02 -9.68984760D-10
 -1.64358160D-09 -1.87115950D-09  4.81718870D-09  2.31037770D-02 -1.85011070D-03
  2.12113050D-02
END DATA
 TOTAL ENERGY =      -76.421710687455 THE VIRIAL(-V/T)=   2.01177209
