 WATER_MONOMER0003
GAUSSIAN              5 MOL ORBITALS     46 PRIMITIVES        3 NUCLEI   B3LYP
O      1    (CENTRE  1)   0.71793649 -0.16898332  0.40818483  CHARGE = 8.0
H      2    (CENTRE  2)  -1.04757642 -0.37411658  0.81943465  CHARGE = 1.0
H      3    (CENTRE  3)   0.32963993  0.54309990 -1.22761949  CHARGE = 1.0
CENTRE ASSIGNMENTS    1  1  1  1  1  1  1  1  1  1  1  1  1  1  1  1  1  1  1  1
CENTRE ASSIGNMENTS    1  1  1  1  1  1  1  1  1  1  1  1  2  2  2  2  2  2  2  3
CENTRE ASSIGNMENTS    3  3  3  3  3  3
TYPE ASSIGNMENTS      1  1  1  1  1  1  1  1  1  2  2  2  3  3  3  4  4  4  1  2
TYPE ASSIGNMENTS      3  4  1  2  3  4  5  6  7  8  9 10  1  1  1  1  2  3  4  1
TYPE ASSIGNMENTS      1  1  1  2  3  4
EXPONENTS  5.4846720D+03 8.2523490D+02 1.8804700D+02 5.2964500D+01 1.6897570D+01
EXPONENTS  5.7996350D+00 1.5539620D+01 3.5999340D+00 1.0137620D+00 1.5539620D+01
EXPONENTS  3.5999340D+00 1.0137620D+00 1.5539620D+01 3.5999340D+00 1.0137620D+00
EXPONENTS  1.5539620D+01 3.5999340D+00 1.0137620D+00 2.7000580D-01 2.7000580D-01
EXPONENTS  2.7000580D-01 2.7000580D-01 8.4500000D-02 8.4500000D-02 8.4500000D-02
EXPONENTS  8.4500000D-02 8.0000000D-01 8.0000000D-01 8.0000000D-01 8.0000000D-01
EXPONENTS  8.0000000D-01 8.0000000D-01 1.8731140D+01 2.8253940D+00 6.4012170D-01
EXPONENTS  1.6127780D-01 1.1000000D+00 1.1000000D+00 1.1000000D+00 1.8731140D+01
EXPONENTS  2.8253940D+00 6.4012170D-01 1.6127780D-01 1.1000000D+00 1.1000000D+00
EXPONENTS  1.1000000D+00
MO    1                   OCC NO =    2.0000000  ORB. ENERGY =  -19.174223
  8.25712240D-01  1.51975130D+00  2.45924450D+00  3.23274570D+00  2.77270720D+00
  9.48035680D-01 -1.60223750D-02 -7.14915240D-03  2.11115430D-02 -3.60861850D-03
 -2.78024610D-03 -1.22067780D-03  8.46121150D-04  6.51890730D-04  2.86215140D-04
 -2.04428300D-03 -1.57500980D-03 -6.91514150D-04  3.14861540D-03  1.11455260D-04
 -2.64523020D-05  6.38671700D-05 -9.75413390D-05 -4.49388660D-05  1.05559420D-05
 -2.55011900D-05 -8.85536570D-03 -8.95284220D-03 -8.87283340D-03  7.52169870D-06
 -9.69427340D-06 -8.71370610D-05  5.94988260D-05  1.00921270D-04  1.14895300D-04
 -1.98050960D-04 -3.41976200D-04 -3.46339270D-05  6.80314080D-05  6.01535800D-05
  1.02031860D-04  1.16159660D-04 -1.97343620D-04 -8.50298460D-05  1.32898320D-04
 -3.05696640D-04
MO    2                   OCC NO =    2.0000000  ORB. ENERGY =   -1.032714
 -1.73887000D-01 -3.20044910D-01 -5.17893080D-01 -6.80784950D-01 -5.83905300D-01
 -1.99647140D-01 -2.89049240D-01 -1.28973210D-01  3.80859620D-01 -3.49261680D-01
 -2.69087290D-01 -1.18143820D-01  8.19005500D-02  6.30999580D-02  2.77042800D-02
 -1.97875060D-01 -1.52452060D-01 -6.69346670D-02  1.11573630D-01 -1.05916970D-02
  2.48901070D-03 -6.01283090D-03  2.62979390D-03 -8.18428970D-04  1.91519290D-04
 -4.62773080D-04  3.64361500D-03 -7.38745080D-03 -7.39542150D-04 -1.95588910D-03
  5.26276860D-03 -7.11526060D-03  3.38321000D-02  5.73856450D-02  6.53315290D-02
 -4.29172490D-04  3.59728030D-02  7.11141460D-03 -1.50631310D-02  3.37608870D-02
  5.72648540D-02  6.51940120D-02 -4.17312320D-04  1.38121780D-03 -1.58814190D-02
  3.62503790D-02
MO    3                   OCC NO =    2.0000000  ORB. ENERGY =   -0.515991
  7.48457020D-05  1.37756050D-04  2.22915280D-04  2.93028380D-04  2.51328740D-04
  8.59335650D-05  1.27207120D-04  5.67595670D-05 -1.67611760D-04 -8.64635060D-01
 -6.66154700D-01 -2.92477790D-01 -5.74731900D-01 -4.42799940D-01 -1.94413030D-01
  1.28264000D+00  9.88204980D-01  4.33875210D-01 -1.12112860D-04 -3.78779490D-02
 -2.51928440D-02  5.62240640D-02 -7.93159430D-06 -6.43874090D-04 -4.27245050D-04
  9.53455310D-04  2.72394890D-02 -4.26299950D-03 -2.29668930D-02  1.17167490D-02
 -2.49707910D-02  1.97950990D-02  5.11851200D-02  8.68196510D-02  9.88411040D-02
  2.62279380D-02  2.52681440D-02 -3.48410890D-03  8.75037280D-03 -5.11630400D-02
 -8.67821990D-02 -9.87984670D-02 -2.62342920D-02 -1.98088350D-02  7.12333250D-03
 -1.68725960D-02
MO    4                   OCC NO =    2.0000000  ORB. ENERGY =   -0.419707
 -7.48904620D-02 -1.37838430D-01 -2.23048600D-01 -2.93203620D-01 -2.51479040D-01
 -8.59849560D-02 -1.25546830D-01 -5.60187530D-02  1.65424130D-01  1.44087950D+00
  1.11012000D+00  4.87402460D-01 -3.39068070D-01 -2.61233670D-01 -1.14695650D-01
  8.19040800D-01  6.31026780D-01  2.77054750D-01  9.66260040D-02  6.98415340D-02
 -1.64389890D-02  3.97089140D-02  8.46287050D-03  3.04144170D-03 -7.15513480D-04
  1.72839570D-03 -2.58055420D-02  6.31748550D-03 -2.42518260D-03  1.63308310D-02
 -3.93980140D-02  8.68894230D-03 -3.39545110D-02 -5.75932770D-02 -6.55679110D-02
 -2.22782710D-02 -1.70226840D-03 -1.12892060D-02  2.56825920D-02 -3.39968380D-02
 -5.76650710D-02 -6.56496450D-02 -2.23175680D-02  2.42191090D-02  6.00481600D-03
 -1.29158690D-02
MO    5                   OCC NO =    2.0000000  ORB. ENERGY =   -0.323567
  1.08166230D-09  1.99083600D-09  3.22154840D-09  4.23481560D-09  3.63217670D-09
  1.24190290D-09 -9.29911810D-10 -4.14924840D-10  1.22527860D-09 -2.57821830D-02
 -1.98637820D-02 -8.72127030D-03  1.83961210D+00  1.41732200D+00  6.22280690D-01
  8.06922920D-01  6.21690610D-01  2.72955660D-01 -3.15712800D-09 -1.49355070D-03
  1.06568250D-01  4.67448370D-02 -1.14830080D-08 -1.05189130D-04  7.50563400D-03
  3.29225350D-03  6.27354200D-04  1.05166210D-02 -1.11439850D-02 -4.49107320D-02
 -1.92788200D-02 -2.07929110D-02 -5.34856040D-10 -9.07217070D-10 -1.03283460D-09
  1.31897300D-08 -4.72393000D-04  3.37065080D-02  1.47849360D-02  1.15990940D-09
  1.96742590D-09  2.23984480D-09  8.62457870D-09 -4.71970500D-04  3.36761010D-02
  1.47716060D-02
END DATA
 TOTAL ENERGY =      -76.429488497970 THE VIRIAL(-V/T)=   2.00883314
