 Entering Gaussian System, Link 0=/opt/software/RI/non-eb/apps/binapps/gaussian/g16c01_em64t_haswell/g16/g16
 Input=/gpfs01/scratch/mbdxwym4/water_monomer_example_dir/WATER_MONOMER.pointsdir/WATER_MONOMER0003.pointdir/WATER_MONOMER0003.gjf
 Output=/gpfs01/scratch/mbdxwym4/water_monomer_example_dir/WATER_MONOMER.pointsdir/WATER_MONOMER0003.pointdir/WATER_MONOMER0003.gaussianoutput
 Initial command:
 /opt/software/RI/non-eb/apps/binapps/gaussian/g16c01_em64t_haswell/g16/l1.exe "/gpfs01/scratch/mbdxwym4/water_monomer_example_dir/WATER_MONOMER.pointsdir/WATER_MONOMER0003.pointdir/Gau-111381.inp" -scrdir="/gpfs01/scratch/mbdxwym4/water_monomer_example_dir/WATER_MONOMER.pointsdir/WATER_MONOMER0003.pointdir/"
 Entering Link 1 = /opt/software/RI/non-eb/apps/binapps/gaussian/g16c01_em64t_haswell/g16/l1.exe PID=    111385.

 Copyright (c) 1988-2019, Gaussian, Inc.  All Rights Reserved.

 This is part of the Gaussian(R) 16 program.  It is based on
 the Gaussian(R) 09 system (copyright 2009, Gaussian, Inc.),
 the Gaussian(R) 03 system (copyright 2003, Gaussian, Inc.),
 the Gaussian(R) 98 system (copyright 1998, Gaussian, Inc.),
 the Gaussian(R) 94 system (copyright 1995, Gaussian, Inc.),
 the Gaussian 92(TM) system (copyright 1992, Gaussian, Inc.),
 the Gaussian 90(TM) system (copyright 1990, Gaussian, Inc.),
 the Gaussian 88(TM) system (copyright 1988, Gaussian, Inc.),
 the Gaussian 86(TM) system (copyright 1986, Carnegie Mellon
 University), and the Gaussian 82(TM) system (copyright 1983,
 Carnegie Mellon University). Gaussian is a federally registered
 trademark of Gaussian, Inc.

 This software contains proprietary and confidential information,
 including trade secrets, belonging to Gaussian, Inc.

 This software is provided under written license and may be
 used, copied, transmitted, or stored only in accord with that
 written license.

 The following legend is applicable only to US Government
 contracts under FAR:

                    RESTRICTED RIGHTS LEGEND

 Use, reproduction and disclosure by the US Government is
 subject to restrictions as set forth in subparagraphs (a)
 and (c) of the Commercial Computer Software - Restricted
 Rights clause in FAR 52.227-19.

 Gaussian, Inc.
 340 Quinnipiac St., Bldg. 40, Wallingford CT 06492


 ---------------------------------------------------------------
 Warning -- This program may not be used in any manner that
 competes with the business of Gaussian, Inc. or will provide
 assistance to any competitor of Gaussian, Inc.  The licensee
 of this program is prohibited from giving any competitor of
 Gaussian, Inc. access to this program.  By using this program,
 the user acknowledges that Gaussian, Inc. is engaged in the
 business of creating and licensing software in the field of
 computational chemistry and represents and warrants to the
 licensee that it is not a competitor of Gaussian, Inc. and that
 it will not use this program in any manner prohibited above.
 ---------------------------------------------------------------


 Cite this work as:
 Gaussian 16, Revision C.01,
 M. J. Frisch, G. W. Trucks, H. B. Schlegel, G. E. Scuseria,
 M. A. Robb, J. R. Cheeseman, G. Scalmani, V. Barone,
 G. A. Petersson, H. Nakatsuji, X. Li, M. Caricato, A. V. Marenich,
 J. Bloino, B. G. Janesko, R. Gomperts, B. Mennucci, H. P. Hratchian,
 J. V. Ortiz, A. F. Izmaylov, J. L. Sonnenberg, D. Williams-Young,
 F. Ding, F. Lipparini, F. Egidi, J. Goings, B. Peng, A. Petrone,
 T. Henderson, D. Ranasinghe, V. G. Zakrzewski, J. Gao, N. Rega,
 G. Zheng, W. Liang, M. Hada, M. Ehara, K. Toyota, R. Fukuda,
 J. Hasegawa, M. Ishida, T. Nakajima, Y. Honda, O. Kitao, H. Nakai,
 T. Vreven, K. Throssell, J. A. Montgomery, Jr., J. E. Peralta,
 F. Ogliaro, M. J. Bearpark, J. J. Heyd, E. N. Brothers, K. N. Kudin,
 V. N. Staroverov, T. A. Keith, R. Kobayashi, J. Normand,
 K. Raghavachari, A. P. Rendell, J. C. Burant, S. S. Iyengar,
 J. Tomasi, M. Cossi, J. M. Millam, M. Klene, C. Adamo, R. Cammi,
 J. W. Ochterski, R. L. Martin, K. Morokuma, O. Farkas,
 J. B. Foresman, and D. J. Fox, Gaussian, Inc., Wallingford CT, 2019.

 ******************************************
 Gaussian 16:  ES64L-G16RevC.01  3-Jul-2019
                 7-May-2024
 ******************************************
 --------------------------------------------------------
 #p b3lyp/6-31+g(d,p) nosymm output=wfn force geom=notest
 --------------------------------------------------------
 1/10=7,30=1,38=1/1,3;
 2/12=3,15=1,17=6,18=5,40=1/2;
 3/5=1,6=6,7=111,11=2,25=1,30=1,71=1,74=-5/1,2,3;
 4//1;
 5/5=2,38=5/2;
 6/7=2,8=2,9=2,10=2,28=1/1;
 7/29=1,30=1/1,2,3,16;
 1/10=7,30=1/3;
 99/6=100/99;
 Leave Link    1 at Tue May  7 15:36:21 2024, MaxMem=           0 cpu:               0.1 elap:               0.1
 (Enter /opt/software/RI/non-eb/apps/binapps/gaussian/g16c01_em64t_haswell/g16/l101.exe)
 -----------------
 WATER_MONOMER0003
 -----------------
 Symbolic Z-matrix:
 Charge =  0 Multiplicity = 1
 O                     0.37992  -0.08942   0.216
 H                    -0.55435  -0.19797   0.43363
 H                     0.17444   0.2874   -0.64963

 ITRead=  0  0  0
 MicOpt= -1 -1 -1
 NAtoms=      3 NQM=        3 NQMF=       0 NMMI=      0 NMMIF=      0
                NMic=       0 NMicF=      0.
                    Isotopes and Nuclear Properties:
 (Nuclear quadrupole moments (NQMom) in fm**2, nuclear magnetic moments (NMagM)
  in nuclear magnetons)

  Atom         1           2           3
 IAtWgt=          16           1           1
 AtmWgt=  15.9949146   1.0078250   1.0078250
 NucSpn=           0           1           1
 AtZEff=  -0.0000000  -0.0000000  -0.0000000
 NQMom=    0.0000000   0.0000000   0.0000000
 NMagM=    0.0000000   2.7928460   2.7928460
 AtZNuc=   8.0000000   1.0000000   1.0000000
 Leave Link  101 at Tue May  7 15:36:21 2024, MaxMem=   104857600 cpu:               0.1 elap:               0.1
 (Enter /opt/software/RI/non-eb/apps/binapps/gaussian/g16c01_em64t_haswell/g16/l103.exe)

 GradGradGradGradGradGradGradGradGradGradGradGradGradGradGradGradGradGrad
 Berny optimization.
 Initialization pass.
 Trust Radius=3.00D-01 FncErr=1.00D-07 GrdErr=1.00D-07 EigMax=2.50D+02 EigMin=1.00D-04
 Number of steps in this run=      2 maximum allowed number of steps=      2.
 GradGradGradGradGradGradGradGradGradGradGradGradGradGradGradGradGradGrad

 Leave Link  103 at Tue May  7 15:36:22 2024, MaxMem=   104857600 cpu:               0.0 elap:               0.1
 (Enter /opt/software/RI/non-eb/apps/binapps/gaussian/g16c01_em64t_haswell/g16/l202.exe)
                          Input orientation:
 ---------------------------------------------------------------------
 Center     Atomic      Atomic             Coordinates (Angstroms)
 Number     Number       Type             X           Y           Z
 ---------------------------------------------------------------------
      1          8           0        0.379916   -0.089422    0.216002
      2          1           0       -0.554354   -0.197974    0.433626
      3          1           0        0.174438    0.287396   -0.649628
 ---------------------------------------------------------------------
                    Distance matrix (angstroms):
                    1          2          3
     1  O    0.000000
     2  H    0.965403   0.000000
     3  H    0.966193   1.392897   0.000000
 Symmetry turned off by external request.
 Stoichiometry    H2O
 Framework group  CS[SG(H2O)]
 Deg. of freedom     3
 Full point group                 CS      NOp   2
 Rotational constants (GHZ):         630.5757171         516.9194818         284.0594655
 Leave Link  202 at Tue May  7 15:36:22 2024, MaxMem=   104857600 cpu:               0.0 elap:               0.0
 (Enter /opt/software/RI/non-eb/apps/binapps/gaussian/g16c01_em64t_haswell/g16/l301.exe)
 Standard basis: 6-31+G(d,p) (6D, 7F)
 Ernie: Thresh=  0.10000D-02 Tol=  0.10000D-05 Strict=F.
    29 basis functions,    46 primitive gaussians,    29 cartesian basis functions
     5 alpha electrons        5 beta electrons
       nuclear repulsion energy         9.1465864276 Hartrees.
 IExCor=  402 DFT=T Ex+Corr=B3LYP ExCW=0 ScaHFX=  0.200000
 ScaDFX=  0.800000  0.720000  1.000000  0.810000 ScalE2=  1.000000  1.000000
 IRadAn=      5 IRanWt=     -1 IRanGd=            0 ICorTp=0 IEmpDi=  4
 NAtoms=    3 NActive=    3 NUniq=    3 SFac= 1.00D+00 NAtFMM=   60 NAOKFM=F Big=F
 Integral buffers will be    131072 words long.
 Raffenetti 2 integral format.
 Two-electron integral symmetry is turned off.
 Leave Link  301 at Tue May  7 15:36:22 2024, MaxMem=   104857600 cpu:               0.1 elap:               0.1
 (Enter /opt/software/RI/non-eb/apps/binapps/gaussian/g16c01_em64t_haswell/g16/l302.exe)
 NPDir=0 NMtPBC=     1 NCelOv=     1 NCel=       1 NClECP=     1 NCelD=      1
         NCelK=      1 NCelE2=     1 NClLst=     1 CellRange=     0.0.
 One-electron integrals computed using PRISM.
 NBasis=    29 RedAO= T EigKep=  1.60D-02  NBF=    29
 NBsUse=    29 1.00D-06 EigRej= -1.00D+00 NBFU=    29
 Precomputing XC quadrature grid using
 IXCGrd= 4 IRadAn=           5 IRanWt=          -1 IRanGd=           0 AccXCQ= 0.00D+00.
 Generated NRdTot=       0 NPtTot=           0 NUsed=           0 NTot=          32
 NSgBfM=    29    29    29    29    29 MxSgAt=     3 MxSgA2=     3.
 Leave Link  302 at Tue May  7 15:36:22 2024, MaxMem=   104857600 cpu:               0.1 elap:               0.1
 (Enter /opt/software/RI/non-eb/apps/binapps/gaussian/g16c01_em64t_haswell/g16/l303.exe)
 DipDrv:  MaxL=1.
 Leave Link  303 at Tue May  7 15:36:22 2024, MaxMem=   104857600 cpu:               0.0 elap:               0.0
 (Enter /opt/software/RI/non-eb/apps/binapps/gaussian/g16c01_em64t_haswell/g16/l401.exe)
 ExpMin= 8.45D-02 ExpMax= 5.48D+03 ExpMxC= 8.25D+02 IAcc=3 IRadAn=         5 AccDes= 0.00D+00
 Harris functional with IExCor=  402 and IRadAn=       5 diagonalized for initial guess.
 HarFok:  IExCor=  402 AccDes= 0.00D+00 IRadAn=         5 IDoV= 1 UseB2=F ITyADJ=14
 ICtDFT=  3500011 ScaDFX=  1.000000  1.000000  1.000000  1.000000
 FoFCou: FMM=F IPFlag=           0 FMFlag=      100000 FMFlg1=           0
         NFxFlg=           0 DoJE=T BraDBF=F KetDBF=T FulRan=T
         wScrn=  0.000000 ICntrl=       500 IOpCl=  0 I1Cent=   200000004 NGrid=           0
         NMat0=    1 NMatS0=      1 NMatT0=    0 NMatD0=    1 NMtDS0=    0 NMtDT0=    0
 Symmetry not used in FoFCou.
 Harris En= -76.4580416873960
 JPrj=0 DoOrth=F DoCkMO=F.
 Leave Link  401 at Tue May  7 15:36:22 2024, MaxMem=   104857600 cpu:               0.3 elap:               0.3
 (Enter /opt/software/RI/non-eb/apps/binapps/gaussian/g16c01_em64t_haswell/g16/l502.exe)
 Keep R1 ints in memory in canonical form, NReq=958714.
 FoFCou: FMM=F IPFlag=           0 FMFlag=           0 FMFlg1=           0
         NFxFlg=           0 DoJE=F BraDBF=F KetDBF=F FulRan=T
         wScrn=  0.000000 ICntrl=       600 IOpCl=  0 I1Cent=           0 NGrid=           0
         NMat0=    1 NMatS0=    435 NMatT0=    0 NMatD0=    1 NMtDS0=    0 NMtDT0=    0
 Symmetry not used in FoFCou.
 Two-electron integral symmetry not used.
 Closed shell SCF:
 Using DIIS extrapolation, IDIIS=  1040.
 NGot=   104857600 LenX=   104760453 LenY=   104759171
 Requested convergence on RMS density matrix=1.00D-08 within 128 cycles.
 Requested convergence on MAX density matrix=1.00D-06.
 Requested convergence on             energy=1.00D-06.
 No special actions if energy rises.
 Integral accuracy reduced to 1.0D-05 until final iterations.

 Cycle   1  Pass 0  IDiag  1:
 E= -76.3572730694503
 DIIS: error= 6.23D-02 at cycle   1 NSaved=   1.
 NSaved= 1 IEnMin= 1 EnMin= -76.3572730694503     IErMin= 1 ErrMin= 6.23D-02
 ErrMax= 6.23D-02  0.00D+00 EMaxC= 1.00D-01 BMatC= 9.43D-02 BMatP= 9.43D-02
 IDIUse=3 WtCom= 3.77D-01 WtEn= 6.23D-01
 Coeff-Com:  0.100D+01
 Coeff-En:   0.100D+01
 Coeff:      0.100D+01
 Gap=     0.198 Goal=   None    Shift=    0.000
 GapD=    0.198 DampG=1.000 DampE=0.500 DampFc=0.5000 IDamp=-1.
 Damping current iteration by 5.00D-01
 RMSDP=1.75D-02 MaxDP=1.72D-01              OVMax= 2.15D-01

 Cycle   2  Pass 0  IDiag  1:
 E= -76.3694752766447     Delta-E=       -0.012202207194 Rises=F Damp=T
 DIIS: error= 2.55D-02 at cycle   2 NSaved=   2.
 NSaved= 2 IEnMin= 2 EnMin= -76.3694752766447     IErMin= 2 ErrMin= 2.55D-02
 ErrMax= 2.55D-02  0.00D+00 EMaxC= 1.00D-01 BMatC= 1.34D-02 BMatP= 9.43D-02
 IDIUse=3 WtCom= 7.45D-01 WtEn= 2.55D-01
 Coeff-Com:  0.265D+00 0.735D+00
 Coeff-En:   0.426D+00 0.574D+00
 Coeff:      0.306D+00 0.694D+00
 Gap=     0.327 Goal=   None    Shift=    0.000
 RMSDP=2.30D-03 MaxDP=1.83D-02 DE=-1.22D-02 OVMax= 1.39D-01

 Cycle   3  Pass 0  IDiag  1:
 E= -76.4291525908415     Delta-E=       -0.059677314197 Rises=F Damp=F
 DIIS: error= 4.42D-03 at cycle   3 NSaved=   3.
 NSaved= 3 IEnMin= 3 EnMin= -76.4291525908415     IErMin= 3 ErrMin= 4.42D-03
 ErrMax= 4.42D-03  0.00D+00 EMaxC= 1.00D-01 BMatC= 4.93D-04 BMatP= 1.34D-02
 IDIUse=3 WtCom= 9.56D-01 WtEn= 4.42D-02
 Coeff-Com:  0.574D-01-0.309D-01 0.974D+00
 Coeff-En:   0.000D+00 0.000D+00 0.100D+01
 Coeff:      0.549D-01-0.296D-01 0.975D+00
 Gap=     0.343 Goal=   None    Shift=    0.000
 RMSDP=4.17D-04 MaxDP=4.18D-03 DE=-5.97D-02 OVMax= 5.12D-03

 Cycle   4  Pass 0  IDiag  1:
 E= -76.4294852422541     Delta-E=       -0.000332651413 Rises=F Damp=F
 DIIS: error= 3.44D-04 at cycle   4 NSaved=   4.
 NSaved= 4 IEnMin= 4 EnMin= -76.4294852422541     IErMin= 4 ErrMin= 3.44D-04
 ErrMax= 3.44D-04  0.00D+00 EMaxC= 1.00D-01 BMatC= 4.35D-06 BMatP= 4.93D-04
 IDIUse=3 WtCom= 9.97D-01 WtEn= 3.44D-03
 Coeff-Com:  0.988D-02-0.239D-01 0.231D+00 0.783D+00
 Coeff-En:   0.000D+00 0.000D+00 0.000D+00 0.100D+01
 Coeff:      0.984D-02-0.238D-01 0.230D+00 0.784D+00
 Gap=     0.344 Goal=   None    Shift=    0.000
 RMSDP=3.98D-05 MaxDP=1.93D-04 DE=-3.33D-04 OVMax= 5.10D-04

 Cycle   5  Pass 0  IDiag  1:
 E= -76.4294883456121     Delta-E=       -0.000003103358 Rises=F Damp=F
 DIIS: error= 1.52D-04 at cycle   5 NSaved=   5.
 NSaved= 5 IEnMin= 5 EnMin= -76.4294883456121     IErMin= 5 ErrMin= 1.52D-04
 ErrMax= 1.52D-04  0.00D+00 EMaxC= 1.00D-01 BMatC= 4.64D-07 BMatP= 4.35D-06
 IDIUse=3 WtCom= 9.98D-01 WtEn= 1.52D-03
 Coeff-Com:  0.227D-02-0.337D-02 0.179D-01 0.616D-01 0.922D+00
 Coeff-En:   0.000D+00 0.000D+00 0.000D+00 0.000D+00 0.100D+01
 Coeff:      0.227D-02-0.336D-02 0.179D-01 0.615D-01 0.922D+00
 Gap=     0.344 Goal=   None    Shift=    0.000
 RMSDP=1.46D-05 MaxDP=1.34D-04 DE=-3.10D-06 OVMax= 1.74D-04

 Cycle   6  Pass 0  IDiag  1:
 E= -76.4294887043283     Delta-E=       -0.000000358716 Rises=F Damp=F
 DIIS: error= 1.22D-05 at cycle   6 NSaved=   6.
 NSaved= 6 IEnMin= 6 EnMin= -76.4294887043283     IErMin= 6 ErrMin= 1.22D-05
 ErrMax= 1.22D-05  0.00D+00 EMaxC= 1.00D-01 BMatC= 2.85D-09 BMatP= 4.64D-07
 IDIUse=1 WtCom= 1.00D+00 WtEn= 0.00D+00
 Coeff-Com: -0.438D-04 0.555D-04-0.581D-03-0.507D-02-0.891D-01 0.109D+01
 Coeff:     -0.438D-04 0.555D-04-0.581D-03-0.507D-02-0.891D-01 0.109D+01
 Gap=     0.344 Goal=   None    Shift=    0.000
 RMSDP=1.24D-06 MaxDP=1.26D-05 DE=-3.59D-07 OVMax= 1.66D-05

 Initial convergence to 1.0D-05 achieved.  Increase integral accuracy.
 Cycle   7  Pass 1  IDiag  1:
 E= -76.4294884979637     Delta-E=        0.000000206365 Rises=F Damp=F
 DIIS: error= 2.89D-07 at cycle   1 NSaved=   1.
 NSaved= 1 IEnMin= 1 EnMin= -76.4294884979637     IErMin= 1 ErrMin= 2.89D-07
 ErrMax= 2.89D-07  0.00D+00 EMaxC= 1.00D-01 BMatC= 2.86D-12 BMatP= 2.86D-12
 IDIUse=1 WtCom= 1.00D+00 WtEn= 0.00D+00
 Coeff-Com:  0.100D+01
 Coeff:      0.100D+01
 Gap=     0.344 Goal=   None    Shift=    0.000
 RMSDP=1.24D-06 MaxDP=1.26D-05 DE= 2.06D-07 OVMax= 2.10D-06

 Cycle   8  Pass 1  IDiag  1:
 E= -76.4294884979677     Delta-E=       -0.000000000004 Rises=F Damp=F
 DIIS: error= 3.43D-07 at cycle   2 NSaved=   2.
 NSaved= 2 IEnMin= 2 EnMin= -76.4294884979677     IErMin= 1 ErrMin= 2.89D-07
 ErrMax= 3.43D-07  0.00D+00 EMaxC= 1.00D-01 BMatC= 2.84D-12 BMatP= 2.86D-12
 IDIUse=1 WtCom= 1.00D+00 WtEn= 0.00D+00
 Coeff-Com:  0.499D+00 0.501D+00
 Coeff:      0.499D+00 0.501D+00
 Gap=     0.344 Goal=   None    Shift=    0.000
 RMSDP=4.35D-08 MaxDP=4.77D-07 DE=-3.98D-12 OVMax= 5.17D-07

 Cycle   9  Pass 1  IDiag  1:
 E= -76.4294884979695     Delta-E=       -0.000000000002 Rises=F Damp=F
 DIIS: error= 1.18D-07 at cycle   3 NSaved=   3.
 NSaved= 3 IEnMin= 3 EnMin= -76.4294884979695     IErMin= 3 ErrMin= 1.18D-07
 ErrMax= 1.18D-07  0.00D+00 EMaxC= 1.00D-01 BMatC= 2.84D-13 BMatP= 2.84D-12
 IDIUse=1 WtCom= 1.00D+00 WtEn= 0.00D+00
 Coeff-Com: -0.382D-01 0.232D+00 0.806D+00
 Coeff:     -0.382D-01 0.232D+00 0.806D+00
 Gap=     0.344 Goal=   None    Shift=    0.000
 RMSDP=1.52D-08 MaxDP=1.28D-07 DE=-1.79D-12 OVMax= 1.85D-07

 Cycle  10  Pass 1  IDiag  1:
 E= -76.4294884979697     Delta-E=       -0.000000000000 Rises=F Damp=F
 DIIS: error= 3.65D-09 at cycle   4 NSaved=   4.
 NSaved= 4 IEnMin= 4 EnMin= -76.4294884979697     IErMin= 4 ErrMin= 3.65D-09
 ErrMax= 3.65D-09  0.00D+00 EMaxC= 1.00D-01 BMatC= 5.95D-16 BMatP= 2.84D-13
 IDIUse=1 WtCom= 1.00D+00 WtEn= 0.00D+00
 Coeff-Com: -0.944D-02 0.390D-01 0.125D+00 0.846D+00
 Coeff:     -0.944D-02 0.390D-01 0.125D+00 0.846D+00
 Gap=     0.344 Goal=   None    Shift=    0.000
 RMSDP=7.39D-10 MaxDP=3.99D-09 DE=-2.13D-13 OVMax= 1.19D-08

 SCF Done:  E(RB3LYP) =  -76.4294884980     A.U. after   10 cycles
            NFock= 10  Conv=0.74D-09     -V/T= 2.0088
 KE= 7.576028748493D+01 PE=-1.985716371243D+02 EE= 3.723527471377D+01
 Leave Link  502 at Tue May  7 15:36:24 2024, MaxMem=   104857600 cpu:               1.1 elap:               1.1
 (Enter /opt/software/RI/non-eb/apps/binapps/gaussian/g16c01_em64t_haswell/g16/l601.exe)
 Copying SCF densities to generalized density rwf, IOpCl= 0 IROHF=0.

 **********************************************************************

            Population analysis using the SCF Density.

 **********************************************************************

 Alpha  occ. eigenvalues --  -19.17422  -1.03271  -0.51599  -0.41971  -0.32357
 Alpha virt. eigenvalues --    0.02029   0.11863   0.15479   0.15579   0.19263
 Alpha virt. eigenvalues --    0.25910   0.87277   0.99958   1.08549   1.11063
 Alpha virt. eigenvalues --    1.16524   1.26497   1.43551   1.53574   1.58667
 Alpha virt. eigenvalues --    2.23181   2.26501   2.56216   2.57917   2.72160
 Alpha virt. eigenvalues --    2.93903   3.31465   3.55393   3.91242
          Condensed to atoms (all electrons):
               1          2          3
     1  O    8.161417   0.255633   0.255562
     2  H    0.255633   0.429127  -0.021084
     3  H    0.255562  -0.021084   0.429233
 Mulliken charges:
               1
     1  O   -0.672612
     2  H    0.336324
     3  H    0.336289
 Sum of Mulliken charges =   0.00000
 Mulliken charges with hydrogens summed into heavy atoms:
               1
     1  O    0.000000
 Electronic spatial extent (au):  <R**2>=             24.6996
 Charge=              0.0000 electrons
 Dipole moment (field-independent basis, Debye):
    X=             -2.0363    Y=              0.4790    Z=             -1.1570  Tot=              2.3905
 Quadrupole moment (field-independent basis, Debye-Ang):
   XX=             -6.8842   YY=             -7.4952   ZZ=             -6.0587
   XY=              0.4805   XZ=             -1.0644   YZ=             -0.8024
 Traceless Quadrupole moment (field-independent basis, Debye-Ang):
   XX=             -0.0715   YY=             -0.6825   ZZ=              0.7540
   XY=              0.4805   XZ=             -1.0644   YZ=             -0.8024
 Octapole moment (field-independent basis, Debye-Ang**2):
  XXX=             -7.1177  YYY=              1.7805  ZZZ=             -4.1497  XYY=             -2.5160
  XXY=              0.5301  XXZ=             -1.2734  XZZ=             -2.3914  YZZ=              0.5188
  YYZ=             -1.4113  XYZ=             -0.0642
 Hexadecapole moment (field-independent basis, Debye-Ang**3):
 XXXX=            -12.0314 YYYY=             -8.1287 ZZZZ=             -8.7818 XXXY=              0.6728
 XXXZ=             -1.5822 YYYX=              0.6119 YYYZ=              0.2975 ZZZX=             -1.4365
 ZZZY=             -0.0026 XXYY=             -3.5051 XXZZ=             -3.5441 YYZZ=             -2.8023
 XXYZ=              0.0089 YYXZ=             -0.4888 ZZXY=              0.1872
 N-N= 9.146586427586D+00 E-N=-1.985716370540D+02  KE= 7.576028748493D+01
 No NMR shielding tensors so no spin-rotation constants.
 Leave Link  601 at Tue May  7 15:36:24 2024, MaxMem=   104857600 cpu:               0.1 elap:               0.1
 (Enter /opt/software/RI/non-eb/apps/binapps/gaussian/g16c01_em64t_haswell/g16/l701.exe)
 ... and contract with generalized density number  0.
 Compute integral first derivatives.
 Leave Link  701 at Tue May  7 15:36:24 2024, MaxMem=   104857600 cpu:               0.1 elap:               0.1
 (Enter /opt/software/RI/non-eb/apps/binapps/gaussian/g16c01_em64t_haswell/g16/l702.exe)
 L702 exits ... SP integral derivatives will be done elsewhere.
 Leave Link  702 at Tue May  7 15:36:24 2024, MaxMem=   104857600 cpu:               0.0 elap:               0.0
 (Enter /opt/software/RI/non-eb/apps/binapps/gaussian/g16c01_em64t_haswell/g16/l703.exe)
 Integral derivatives from FoFJK, PRISM(SPDF).
 Compute integral first derivatives, UseDBF=F ICtDFT=           0.
 Calling FoFJK, ICntrl=      2127 FMM=F ISym2X=0 I1Cent= 0 IOpClX= 0 NMat=1 NMatS=1 NMatT=0.
 FoFJK:  IHMeth= 1 ICntrl=    2127 DoSepK=F KAlg= 0 I1Cent=           0 FoldK=F
 IRaf=         0 NMat=       1 IRICut=       1 DoRegI=T DoRafI=F ISym2E= 0 IDoP0=0 IntGTp=1.
 FoFCou: FMM=F IPFlag=           0 FMFlag=      100000 FMFlg1=         800
         NFxFlg=           0 DoJE=F BraDBF=F KetDBF=F FulRan=T
         wScrn=  0.000000 ICntrl=      2127 IOpCl=  0 I1Cent=           0 NGrid=           0
         NMat0=    1 NMatS0=      1 NMatT0=    0 NMatD0=    1 NMtDS0=    0 NMtDT0=    0
 Symmetry not used in FoFCou.
 Leave Link  703 at Tue May  7 15:36:25 2024, MaxMem=   104857600 cpu:               0.5 elap:               0.5
 (Enter /opt/software/RI/non-eb/apps/binapps/gaussian/g16c01_em64t_haswell/g16/l716.exe)
 Dipole        =-8.01139938D-01 1.88433550D-01-4.55185467D-01
 -------------------------------------------------------------------
 Center     Atomic                   Forces (Hartrees/Bohr)
 Number     Number              X              Y              Z
 -------------------------------------------------------------------
      1        8          -0.018193271    0.004554517   -0.010965173
      2        1          -0.001889463   -0.009380492    0.021325553
      3        1           0.020082734    0.004825975   -0.010360380
 -------------------------------------------------------------------
 Cartesian Forces:  Max     0.021325553 RMS     0.013132912
 Z-matrix is all fixed cartesians, so copy forces.
 Force constants in Cartesian coordinates:
                1             2             3             4             5
      1  0.605768D+00
      2 -0.286298D-02  0.932655D-01
      3  0.258820D-01 -0.212717D+00  0.485776D+00
      4 -0.523648D+00 -0.556218D-01  0.110075D+00  0.511841D+00
      5 -0.363438D-01 -0.122285D-01  0.267170D-01  0.544506D-01  0.140246D-01
      6  0.661250D-01  0.261011D-01 -0.573921D-01 -0.107782D+00 -0.302332D-01
      7 -0.821196D-01  0.584848D-01 -0.135957D+00  0.118071D-01 -0.181067D-01
      8  0.392068D-01 -0.810370D-01  0.186000D+00  0.117121D-02 -0.179610D-02
      9 -0.920070D-01  0.186616D+00 -0.428384D+00 -0.229286D-02  0.351619D-02
                6             7             8             9
      6  0.654816D-01
      7  0.416567D-01  0.703125D-01
      8  0.413215D-02 -0.403780D-01  0.828331D-01
      9 -0.808943D-02  0.942999D-01 -0.190132D+00  0.436473D+00
 Leave Link  716 at Tue May  7 15:36:25 2024, MaxMem=   104857600 cpu:               0.0 elap:               0.1
 (Enter /opt/software/RI/non-eb/apps/binapps/gaussian/g16c01_em64t_haswell/g16/l103.exe)

 GradGradGradGradGradGradGradGradGradGradGradGradGradGradGradGradGradGrad
 Berny optimization.
 Search for a local minimum.
 Step number   1 out of a maximum of    2
 All quantities printed in internal units (Hartrees-Bohrs-Radians)
 Second derivative matrix not updated -- first step.
 The second derivative matrix:
                          X1        Y1        Z1        X2        Y2
           X1           0.60577
           Y1          -0.00286   0.09327
           Z1           0.02588  -0.21272   0.48578
           X2          -0.52365  -0.05562   0.11007   0.51184
           Y2          -0.03634  -0.01223   0.02672   0.05445   0.01402
           Z2           0.06613   0.02610  -0.05739  -0.10778  -0.03023
           X3          -0.08212   0.05848  -0.13596   0.01181  -0.01811
           Y3           0.03921  -0.08104   0.18600   0.00117  -0.00180
           Z3          -0.09201   0.18662  -0.42838  -0.00229   0.00352
                          Z2        X3        Y3        Z3
           Z2           0.06548
           X3           0.04166   0.07031
           Y3           0.00413  -0.04038   0.08283
           Z3          -0.00809   0.09430  -0.19013   0.43647
 ITU=  0
     Eigenvalues ---    0.13212   0.89788   0.91964
 Angle between quadratic step and forces=  20.08 degrees.
 Linear search not attempted -- first point.
 B after Tr=    -0.033523    0.007965   -0.019230
         Rot=    1.000000    0.000001   -0.000039   -0.000017 Ang=   0.00 deg.
 Variable       Old X    -DE/DX   Delta X   Delta X   Delta X     New X
                                 (Linear)    (Quad)   (Total)
    X1        0.71794  -0.01819   0.00000  -0.05500  -0.08849   0.62945
    Y1       -0.16898   0.00455   0.00000   0.01307   0.02106  -0.14792
    Z1        0.40818  -0.01097   0.00000  -0.03156  -0.05084   0.35735
    X2       -1.04758  -0.00189   0.00000  -0.01085  -0.04428  -1.09186
    Y2       -0.37412  -0.00938   0.00000  -0.07724  -0.06931  -0.44342
    Z2        0.81943   0.02133   0.00000   0.17574   0.15659   0.97602
    X3        0.32964   0.02008   0.00000   0.16642   0.13277   0.46241
    Y3        0.54310   0.00483   0.00000   0.04027   0.04825   0.59135
    Z3       -1.22762  -0.01036   0.00000  -0.08648  -0.10575  -1.33337
         Item               Value     Threshold  Converged?
 Maximum Force            0.021326     0.000450     NO
 RMS     Force            0.013133     0.000300     NO
 Maximum Displacement     0.156589     0.001800     NO
 RMS     Displacement     0.090236     0.001200     NO
 Predicted change in Energy=-5.165658D-03
 GradGradGradGradGradGradGradGradGradGradGradGradGradGradGradGradGradGrad

 Leave Link  103 at Tue May  7 15:36:25 2024, MaxMem=   104857600 cpu:               0.0 elap:               0.0
 (Enter /opt/software/RI/non-eb/apps/binapps/gaussian/g16c01_em64t_haswell/g16/l9999.exe)
 Unable to Open any file for archive entry.
 1\1\GINC-NODE016\Force\RB3LYP\6-31+G(d,p)\H2O1\MBDXWYM4\07-May-2024\0\
 \#p b3lyp/6-31+g(d,p) nosymm output=wfn force geom=notest\\WATER_MONOM
 ER0003\\0,1\O,0.37991563,-0.08942212,0.21600211\H,-0.55435357,-0.19797
 397,0.43362614\H,0.17443794,0.28739609,-0.64962826\\Version=ES64L-G16R
 evC.01\HF=-76.4294885\RMSD=7.388e-10\RMSF=1.313e-02\Dipole=-0.8011399,
 0.1884336,-0.4551855\Quadrupole=-0.0531595,-0.507432,0.5605915,0.35720
 87,-0.7913245,-0.5965369\PG=CS [SG(H2O1)]\\@
 The archive entry for this job was punched.

 Writing a WFN file to "/gpfs01/scratch/mbdxwym4/water_monomer_example_dir/WATER_MONOMER.pointsdir/WATER_MONOMER0003.pointdir/WATER_MONOMER0003.wfn"


 THE GREAT THING ABOUT BEING IMPERFECT IS THE JOY IT BRINGS OTHERS.
   -- SIGN OUTSIDE LAKE AGASSIZ JR. HIGH SCHOOL, FARGO, N.D.
 Job cpu time:       0 days  0 hours  0 minutes  2.9 seconds.
 Elapsed time:       0 days  0 hours  0 minutes  2.9 seconds.
 File lengths (MBytes):  RWF=     72 Int=      0 D2E=      0 Chk=      8 Scr=      8
 Normal termination of Gaussian 16 at Tue May  7 15:36:25 2024.
