      12
 i =        0, time =        0.000, E =       -47.0003143946
  C        -2.7256300000        1.6226300000       -0.0562600000
  C        -1.2614000000        1.3296100000        0.1351100000
  H        -3.3025200000        0.7231100000        0.1756700000
  H        -2.8983900000        1.9153400000       -1.0952700000
  H        -3.0680900000        2.4282100000        0.5991700000
  O        -0.7170200000        0.3669500000       -0.3952600000
  N        -0.6049900000        2.2334600000        0.9385800000
  C         0.8156800000        2.1365700000        1.1595100000
  H         1.1129200000        1.0918000000        1.2836800000
  H         1.0670700000        2.7050400000        2.0578300000
  H         1.3327500000        2.5626700000        0.2957400000
  H        -1.0727900000        3.0920100000        1.1967600000