 WATER_MONOMER0004
GAUSSIAN              5 MOL ORBITALS    126 PRIMITIVES        3 NUCLEI   B3LYP
  O    1    (CENTRE  1)   0.71793649 -0.16898332  0.40818483  CHARGE =  8.0
  H    2    (CENTRE  2)  -1.04757643 -0.37411658  0.81943465  CHARGE =  1.0
  H    3    (CENTRE  3)   0.32963993  0.54309990 -1.22761950  CHARGE =  1.0
CENTRE ASSIGNMENTS    1  1  1  1  1  1  1  1  1  1  1  1  1  1  1  1  1  1  1  1
CENTRE ASSIGNMENTS    1  1  1  1  1  1  1  1  1  1  1  1  1  1  1  1  1  1  1  1
CENTRE ASSIGNMENTS    1  1  1  1  1  1  1  1  1  1  1  1  1  1  1  1  1  1  1  1
CENTRE ASSIGNMENTS    1  1  1  1  1  1  1  1  1  1  1  1  2  2  2  2  2  2  2  2
CENTRE ASSIGNMENTS    2  2  2  2  2  2  2  2  2  2  2  2  2  2  2  2  2  2  2  3
CENTRE ASSIGNMENTS    3  3  3  3  3  3  3  3  3  3  3  3  3  3  3  3  3  3  3  3
CENTRE ASSIGNMENTS    3  3  3  3  3  3
TYPE ASSIGNMENTS      1  1  1  1  1  1  1  1  1  1  1  1  1  1  1  1  2  2  2  3
TYPE ASSIGNMENTS      3  3  4  4  4  2  3  4  2  3  4  2  3  4  5  6  7  8  9 10
TYPE ASSIGNMENTS      5  6  7  8  9 10  5  6  7  8  9 10 11 12 13 17 14 15 18 19
TYPE ASSIGNMENTS     16 20 11 12 13 17 14 15 18 19 16 20  1  1  1  1  1  1  2  3
TYPE ASSIGNMENTS      4  2  3  4  2  3  4  5  6  7  8  9 10  5  6  7  8  9 10  1
TYPE ASSIGNMENTS      1  1  1  1  1  2  3  4  2  3  4  2  3  4  5  6  7  8  9 10
TYPE ASSIGNMENTS      5  6  7  8  9 10
EXPONENTS  0.1533000D+05 0.2299000D+04 0.5224000D+03 0.1473000D+03 0.4755000D+02
EXPONENTS  0.1676000D+02 0.6207000D+01 0.5224000D+03 0.1473000D+03 0.4755000D+02
EXPONENTS  0.1676000D+02 0.6207000D+01 0.6882000D+00 0.1752000D+01 0.2384000D+00
EXPONENTS  0.7376000D-01 0.3446000D+02 0.7749000D+01 0.2280000D+01 0.3446000D+02
EXPONENTS  0.7749000D+01 0.2280000D+01 0.3446000D+02 0.7749000D+01 0.2280000D+01
EXPONENTS  0.7156000D+00 0.7156000D+00 0.7156000D+00 0.2140000D+00 0.2140000D+00
EXPONENTS  0.2140000D+00 0.5974000D-01 0.5974000D-01 0.5974000D-01 0.2314000D+01
EXPONENTS  0.2314000D+01 0.2314000D+01 0.2314000D+01 0.2314000D+01 0.2314000D+01
EXPONENTS  0.6450000D+00 0.6450000D+00 0.6450000D+00 0.6450000D+00 0.6450000D+00
EXPONENTS  0.6450000D+00 0.2140000D+00 0.2140000D+00 0.2140000D+00 0.2140000D+00
EXPONENTS  0.2140000D+00 0.2140000D+00 0.1428000D+01 0.1428000D+01 0.1428000D+01
EXPONENTS  0.1428000D+01 0.1428000D+01 0.1428000D+01 0.1428000D+01 0.1428000D+01
EXPONENTS  0.1428000D+01 0.1428000D+01 0.5000000D+00 0.5000000D+00 0.5000000D+00
EXPONENTS  0.5000000D+00 0.5000000D+00 0.5000000D+00 0.5000000D+00 0.5000000D+00
EXPONENTS  0.5000000D+00 0.5000000D+00 0.3387000D+02 0.5095000D+01 0.1159000D+01
EXPONENTS  0.3258000D+00 0.1027000D+00 0.2526000D-01 0.1407000D+01 0.1407000D+01
EXPONENTS  0.1407000D+01 0.3880000D+00 0.3880000D+00 0.3880000D+00 0.1020000D+00
EXPONENTS  0.1020000D+00 0.1020000D+00 0.1057000D+01 0.1057000D+01 0.1057000D+01
EXPONENTS  0.1057000D+01 0.1057000D+01 0.1057000D+01 0.2470000D+00 0.2470000D+00
EXPONENTS  0.2470000D+00 0.2470000D+00 0.2470000D+00 0.2470000D+00 0.3387000D+02
EXPONENTS  0.5095000D+01 0.1159000D+01 0.3258000D+00 0.1027000D+00 0.2526000D-01
EXPONENTS  0.1407000D+01 0.1407000D+01 0.1407000D+01 0.3880000D+00 0.3880000D+00
EXPONENTS  0.3880000D+00 0.1020000D+00 0.1020000D+00 0.1020000D+00 0.1057000D+01
EXPONENTS  0.1057000D+01 0.1057000D+01 0.1057000D+01 0.1057000D+01 0.1057000D+01
EXPONENTS  0.2470000D+00 0.2470000D+00 0.2470000D+00 0.2470000D+00 0.2470000D+00
EXPONENTS  0.2470000D+00
MO    1     MO 0.0        OCC NO =    2.0000000  ORB. ENERGY =  -19.144869
  0.49677809D+00  0.92591267D+00  0.15700150D+01  0.23760508D+01  0.29639361D+01
  0.25434981D+01  0.97402467D+00  0.30965274D-04  0.33223707D-03  0.12246884D-02
  0.35809170D-02  0.43151791D-02 -0.51980905D-02  0.55459468D-01  0.18803208D-02
  0.18356764D-03 -0.61637353D-02 -0.59767498D-02 -0.40318801D-02  0.14504578D-02
  0.14064562D-02  0.94878705D-03 -0.35038965D-02 -0.33976010D-02 -0.22920015D-02
 -0.80811140D-03  0.18204148D-03 -0.44080879D-03 -0.16664493D-03  0.36507338D-04
 -0.88548887D-04 -0.69747301D-05  0.15475419D-05 -0.37508447D-05  0.12159352D-02
 -0.19750106D-02  0.75907543D-03  0.26685087D-03 -0.36238100D-03 -0.29783293D-02
 -0.88798931D-05  0.27603957D-04 -0.18724064D-04 -0.84864697D-05  0.16261508D-04
  0.50679964D-04 -0.10146375D-04  0.22096148D-04 -0.11949774D-04 -0.79413837D-05
  0.15516737D-04  0.37312926D-04 -0.37435611D-03 -0.18425927D-03 -0.58139375D-03
  0.10141652D-02 -0.82709436D-03  0.17700018D-02  0.10890318D-03  0.13798722D-02
 -0.25820550D-04  0.10287606D-02  0.83852898D-04  0.45158349D-04  0.11432460D-03
 -0.23456514D-03  0.15911819D-03 -0.33622391D-03 -0.16993551D-04 -0.29459323D-03
 -0.67499029D-05 -0.24371186D-03  0.18504668D-03  0.33373930D-03  0.49209841D-03
 -0.64405474D-03 -0.26734655D-03 -0.23975835D-05 -0.32893893D-03 -0.23614456D-04
  0.43319970D-04 -0.74762595D-03 -0.10457623D-03  0.21450852D-03 -0.70668327D-04
 -0.88042413D-05  0.17813302D-04 -0.17629456D-02  0.86412039D-03  0.89882521D-03
 -0.60678801D-03  0.12153406D-02 -0.11984369D-04 -0.25938466D-04  0.13987051D-04
  0.11951415D-04 -0.17738875D-04  0.37835589D-04  0.30036634D-05  0.18459578D-03
  0.33292610D-03  0.49089934D-03 -0.61915417D-03 -0.25794384D-03 -0.20972180D-05
 -0.10019477D-03  0.11852752D-03 -0.27341970D-03 -0.12195467D-03  0.30228776D-03
 -0.69304854D-03 -0.14218393D-04  0.27958586D-04 -0.64193941D-04  0.89373512D-03
  0.44176058D-03 -0.13354957D-02  0.53560818D-03 -0.12186471D-02  0.19053658D-02
  0.20075148D-04  0.64077885D-05 -0.26482937D-04  0.21931023D-05 -0.46253049D-05
  0.35631590D-04
MO    2     MO 0.0        OCC NO =    2.0000000  ORB. ENERGY =   -1.028461
 -0.10420358D+00 -0.19421835D+00 -0.32932450D+00 -0.49839762D+00 -0.62171174D+00
 -0.53352117D+00 -0.20431026D+00 -0.16040795D-02 -0.17210720D-01 -0.63441955D-01
 -0.18550055D+00 -0.22353719D+00  0.26927423D+00  0.15313686D+00  0.66381150D-01
  0.32518041D-02 -0.29601947D+00 -0.28703931D+00 -0.19363502D+00  0.69374260D-01
  0.67269696D-01  0.45379740D-01 -0.16762323D+00 -0.16253815D+00 -0.10964728D+00
 -0.66741189D-01  0.15666628D-01 -0.37849669D-01 -0.33957255D-02  0.80437268D-03
 -0.19421891D-02 -0.90858538D-04  0.21438391D-04 -0.51788898D-04  0.16083011D-01
 -0.22632258D-01  0.65492473D-02 -0.92900509D-03  0.50376648D-02 -0.31604614D-01
  0.39560422D-02 -0.51226600D-02  0.11666178D-02 -0.81711516D-03  0.25376641D-02
 -0.67816871D-02 -0.74314722D-04  0.18200686D-03 -0.10769214D-03 -0.95782021D-04
  0.19743347D-03  0.31869319D-03 -0.24568961D-02 -0.14992945D-02 -0.23654939D-02
  0.72236937D-02 -0.30753230D-02  0.62054372D-02  0.14699457D-03  0.75732066D-02
  0.89104451D-03  0.77403387D-02 -0.14316749D-04 -0.47295934D-04  0.19643229D-03
  0.11880650D-03  0.32126347D-03 -0.74400327D-03 -0.75856258D-04 -0.17937567D-03
  0.15470641D-03  0.17707377D-03  0.24598696D-01  0.44364760D-01  0.65415813D-01
  0.25028194D-01 -0.12611930D-02 -0.63850490D-04  0.29038087D-01  0.44868880D-02
 -0.93011716D-02  0.48195474D-02  0.80432742D-03 -0.16812628D-02 -0.42141680D-03
 -0.49053881D-04  0.98223310D-04  0.54670719D-02 -0.33842386D-02 -0.20828333D-02
  0.26068055D-02 -0.53556138D-02 -0.15257522D-02 -0.12139948D-03  0.63228955D-04
  0.58170521D-04 -0.56269828D-04  0.11631077D-03  0.83449711D-05  0.24542786D-01
  0.44263926D-01  0.65267133D-01  0.24940252D-01 -0.12651246D-02 -0.63759875D-04
  0.38883522D-02 -0.12194343D-01  0.27924956D-01  0.51247516D-03 -0.20520963D-02
  0.46933333D-02 -0.92174654D-04  0.16982000D-03 -0.39001542D-03 -0.26443384D-02
 -0.21029048D-02  0.47472432D-02 -0.88026586D-03  0.20764983D-02 -0.73996953D-02
  0.71079567D-04  0.32431547D-04 -0.10351111D-03  0.26169772D-04 -0.58594388D-04
  0.14637187D-03
MO    3     MO 0.0        OCC NO =    2.0000000  ORB. ENERGY =   -0.513129
  0.44990181D-04  0.83854299D-04  0.14218675D-03  0.21518452D-03  0.26842573D-03
  0.23034921D-03  0.88211511D-04  0.89006695D-06  0.95498343D-05  0.35202487D-04
  0.10293001D-03  0.12403566D-03 -0.14941410D-03 -0.71288853D-04 -0.14772263D-03
 -0.13443949D-04 -0.78650529D+00 -0.76264557D+00 -0.51447620D+00 -0.52263853D+00
 -0.50678357D+00 -0.34187320D+00  0.11663606D+01  0.11309774D+01  0.76295070D+00
 -0.16497309D+00 -0.10966944D+00  0.24474931D+00 -0.18101511D-01 -0.12053401D-01
  0.26900219D-01 -0.27999960D-03 -0.18646633D-03  0.41611567D-03  0.63006140D-01
 -0.98764156D-02 -0.53129724D-01  0.27110447D-01 -0.57776563D-01  0.45775595D-01
  0.88912653D-02 -0.13842234D-02 -0.75070419D-02  0.38224709D-02 -0.81474010D-02
  0.64806688D-02 -0.33885044D-03  0.55718972D-04  0.28313147D-03 -0.14494532D-03
  0.30883858D-03 -0.24019802D-03 -0.64521935D-03  0.41577767D-02  0.46567508D-03
  0.54565804D-02 -0.16099543D-02  0.31083342D-02 -0.35209224D-02 -0.10863376D-01
 -0.45053595D-02  0.10369023D-01 -0.32973904D-03  0.23610391D-03  0.50789904D-04
  0.44900209D-03 -0.69383659D-04  0.98480868D-04  0.54021503D-03 -0.63892809D-03
 -0.25085058D-03 -0.67443314D-04  0.36265633D-01  0.65406562D-01  0.96441937D-01
  0.66685901D-01  0.79258891D-02 -0.18427701D-03  0.33127969D-01 -0.11351894D-02
  0.36454705D-02  0.13802645D-01 -0.42914825D-03  0.14172012D-02  0.15657028D-03
 -0.16670035D-03  0.38491134D-03  0.13588256D-01 -0.67409405D-02 -0.68473160D-02
  0.16022262D-02 -0.23544448D-02  0.64062463D-04  0.40595499D-03 -0.13816589D-03
 -0.26778910D-03 -0.33177036D-04  0.10821683D-03  0.14263218D-03 -0.36235363D-01
 -0.65351969D-01 -0.96361439D-01 -0.66560258D-01 -0.79213723D-02  0.18456830D-03
 -0.18314956D-01  0.10936631D-01 -0.25518693D-01 -0.75424789D-02  0.45803480D-02
 -0.10681117D-01 -0.44565287D-03 -0.24274840D-04  0.40828059D-04  0.37996352D-02
  0.40073156D-02 -0.78069508D-02  0.58751231D-02 -0.13582145D-01  0.12554166D-01
  0.11174729D-03  0.59176016D-04 -0.17092331D-03  0.25559218D-03 -0.58302572D-03
  0.23792502D-03
MO    4     MO 0.0        OCC NO =    2.0000000  ORB. ENERGY =   -0.426181
 -0.40880667D-01 -0.76194842D-01 -0.12919906D+00 -0.19552904D+00 -0.24390707D+00
 -0.20930855D+00 -0.80154055D-01 -0.69198597D-03 -0.74245553D-02 -0.27368309D-01
 -0.80023330D-01 -0.96432004D-01  0.11616257D+00  0.67078605D-01  0.82438723D-01
  0.11103157D-01  0.13111375D+01  0.12713624D+01  0.85765354D+00 -0.30859513D+00
 -0.29923347D+00 -0.20186113D+00  0.74547258D+00  0.72285764D+00  0.48763549D+00
  0.28121541D+00 -0.66205869D-01  0.15992958D+00  0.35499679D-01 -0.83654855D-02
  0.20206690D-01  0.74196881D-03 -0.17485002D-03  0.42213889D-03 -0.30631903D-01
  0.29186056D-01  0.14458467D-02  0.18968997D-01 -0.47473026D-01  0.29162852D-01
 -0.66900182D-02  0.42169976D-02  0.24730206D-02  0.67993044D-02 -0.16215572D-01
  0.15615601D-02  0.16584143D-03 -0.44451286D-03  0.27867143D-03  0.25405015D-03
 -0.52859560D-03 -0.79634587D-03  0.36494169D-02  0.28021051D-02  0.82175677D-04
 -0.11870372D-01 -0.94440768D-03  0.34453937D-02  0.92212098D-03 -0.74619076D-02
 -0.36919208D-02 -0.13416233D-01  0.54497395D-04  0.10713803D-03 -0.37355334D-03
 -0.30862535D-03 -0.61743723D-03  0.14382421D-02  0.14513317D-03  0.29602314D-03
 -0.31758206D-03 -0.42505459D-03 -0.23824538D-01 -0.42968535D-01 -0.63357080D-01
 -0.52775012D-01 -0.88815995D-02 -0.13115418D-03 -0.10303493D-01 -0.76558662D-02
  0.17124593D-01 -0.68799233D-02 -0.39257024D-02  0.87329758D-02  0.31062567D-03
 -0.19505374D-03  0.45509280D-03 -0.37252453D-02  0.32808502D-02  0.44439511D-03
 -0.48318072D-02  0.10521002D-01  0.32995970D-02  0.11669594D-03 -0.36151103D-04
 -0.80544833D-04 -0.51438430D-04  0.12577898D-03  0.49552154D-04 -0.23853126D-01
 -0.43020094D-01 -0.63433104D-01 -0.52790620D-01 -0.88999465D-02 -0.13099255D-03
  0.12044976D-01  0.72272177D-02 -0.16092086D-01  0.54204533D-02  0.42697022D-02
 -0.95578460D-02  0.58108174D-03 -0.13132227D-04  0.49051903D-04  0.36508938D-02
  0.21248077D-02 -0.57757015D-02 -0.16514413D-02  0.37394732D-02  0.86613828D-02
  0.73468747D-05 -0.17859273D-04  0.10512399D-04 -0.98185130D-04  0.22426850D-03
 -0.25750326D-04
MO    5     MO 0.0        OCC NO =    2.0000000  ORB. ENERGY =   -0.329500
  0.12845849D-06  0.23942550D-06  0.40597959D-06  0.61440693D-06  0.76642422D-06
  0.65770601D-06  0.25186646D-06  0.44233865D-09  0.47460034D-08  0.17494662D-07
  0.51153366D-07  0.61642294D-07 -0.74254675D-07 -0.65148101D-07 -0.45979007D-06
 -0.51844466D-06 -0.22973385D-01 -0.22276456D-01 -0.15027566D-01  0.16373428D+01
  0.15876717D+01  0.10710340D+01  0.71819422D+00  0.69640681D+00  0.46979192D+00
 -0.51757920D-02  0.36888714D+00  0.16180508D+00 -0.87930200D-03  0.62884978D-01
  0.27581319D-01 -0.32596203D-04  0.23337435D-02  0.10235397D-02  0.79909577D-03
  0.13350488D-01 -0.14149584D-01 -0.57077063D-01 -0.24502448D-01 -0.26401367D-01
  0.22038568D-03  0.37106290D-02 -0.39310147D-02 -0.15828358D-01 -0.67939009D-02
 -0.73363784D-02  0.56753792D-05  0.11317739D-03 -0.11885277D-03 -0.47889822D-03
 -0.20554942D-03 -0.22441221D-03 -0.20103590D-03 -0.58247229D-02  0.49960093D-02
  0.15955012D-02  0.14307145D-01  0.63109851D-02 -0.99239353D-03  0.31670233D-02
 -0.21299013D-01 -0.97124685D-03 -0.76135851D-05 -0.21632645D-03  0.15531531D-03
 -0.43178153D-04  0.56416853D-03  0.24559232D-03  0.66018909D-04  0.84810826D-04
 -0.71153824D-03  0.15185310D-03  0.56257134D-06  0.10146206D-05  0.14960575D-05
  0.70352523D-05 -0.28193900D-05 -0.79479283D-07 -0.31853004D-03  0.22821754D-01
  0.10009273D-01 -0.15808683D-03  0.11327814D-01  0.49678388D-02 -0.19917288D-04
  0.13655363D-02  0.59988092D-03 -0.18074653D-03  0.17316424D-02 -0.15508959D-02
  0.12874821D-01  0.57066737D-02 -0.27777078D-02 -0.16395799D-04  0.18390049D-03
 -0.16750469D-03  0.11679433D-02  0.51895780D-03 -0.30073556D-03  0.28803975D-06
  0.51949156D-06  0.76599000D-06 -0.42084841D-05  0.26888578D-05  0.86548778D-07
 -0.31956903D-03  0.22781103D-01  0.99918568D-02 -0.16003330D-03  0.11308345D-01
  0.49599459D-02 -0.19440798D-04  0.13632933D-02  0.59871034D-03 -0.31523494D-04
 -0.53029329D-02  0.53344564D-02  0.23858147D-02  0.84246575D-03  0.98356697D-02
 -0.24507899D-05 -0.49292551D-03  0.49537630D-03  0.15752256D-03  0.50403457D-04
  0.91287498D-03
END DATA
 TOTAL ENERGY =      -76.468896949985 THE VIRIAL(-V/T)=   2.00600413
