 WATER_MONOMER0001
GAUSSIAN              5 MOL ORBITALS     46 PRIMITIVES        3 NUCLEI   B3LYP
O      1    (CENTRE  1)   0.27420298  0.46634862 -0.60872266  CHARGE = 8.0
H      2    (CENTRE  2)  -1.40790543  0.06916794 -0.17449134  CHARGE = 1.0
H      3    (CENTRE  3)   1.13370245 -0.53551656  0.78321398  CHARGE = 1.0
CENTRE ASSIGNMENTS    1  1  1  1  1  1  1  1  1  1  1  1  1  1  1  1  1  1  1  1
CENTRE ASSIGNMENTS    1  1  1  1  1  1  1  1  1  1  1  1  2  2  2  2  2  2  2  3
CENTRE ASSIGNMENTS    3  3  3  3  3  3
TYPE ASSIGNMENTS      1  1  1  1  1  1  1  1  1  2  2  2  3  3  3  4  4  4  1  2
TYPE ASSIGNMENTS      3  4  1  2  3  4  5  6  7  8  9 10  1  1  1  1  2  3  4  1
TYPE ASSIGNMENTS      1  1  1  2  3  4
EXPONENTS  5.4846720D+03 8.2523490D+02 1.8804700D+02 5.2964500D+01 1.6897570D+01
EXPONENTS  5.7996350D+00 1.5539620D+01 3.5999340D+00 1.0137620D+00 1.5539620D+01
EXPONENTS  3.5999340D+00 1.0137620D+00 1.5539620D+01 3.5999340D+00 1.0137620D+00
EXPONENTS  1.5539620D+01 3.5999340D+00 1.0137620D+00 2.7000580D-01 2.7000580D-01
EXPONENTS  2.7000580D-01 2.7000580D-01 8.4500000D-02 8.4500000D-02 8.4500000D-02
EXPONENTS  8.4500000D-02 8.0000000D-01 8.0000000D-01 8.0000000D-01 8.0000000D-01
EXPONENTS  8.0000000D-01 8.0000000D-01 1.8731140D+01 2.8253940D+00 6.4012170D-01
EXPONENTS  1.6127780D-01 1.1000000D+00 1.1000000D+00 1.1000000D+00 1.8731140D+01
EXPONENTS  2.8253940D+00 6.4012170D-01 1.6127780D-01 1.1000000D+00 1.1000000D+00
EXPONENTS  1.1000000D+00
MO    1                   OCC NO =    2.0000000  ORB. ENERGY =  -19.174336
  8.25716310D-01  1.51975880D+00  2.45925660D+00  3.23276170D+00  2.77272090D+00
  9.48040360D-01 -1.60152670D-02 -7.14598080D-03  2.11021770D-02 -1.92030600D-03
 -1.47949230D-03 -6.49576800D-04 -2.20493160D-03 -1.69878090D-03 -7.45856340D-04
  2.84181970D-03  2.18946880D-03  9.61294750D-04  3.13113710D-03  1.27783550D-05
  9.07255520D-05 -1.20781710D-04 -1.05700550D-04 -2.07699900D-05 -2.74915240D-05
  3.56168240D-05 -8.77061340D-03 -8.96972840D-03 -8.99308200D-03  1.38446940D-04
 -1.64227260D-04  5.25401790D-05  3.90130130D-05  6.61734530D-05  7.53361380D-05
 -2.14490780D-04 -4.74265070D-04 -1.22508900D-04  1.36528380D-04  8.88027290D-05
  1.50626240D-04  1.71482650D-04 -1.52378680D-04 -2.61235060D-05  1.35899190D-05
 -1.97218980D-05
MO    2                   OCC NO =    2.0000000  ORB. ENERGY =   -1.023508
 -1.75038990D-01 -3.22165190D-01 -5.21324080D-01 -6.85295100D-01 -5.87773630D-01
 -2.00969790D-01 -2.91179180D-01 -1.29923580D-01  3.83666090D-01 -1.86453820D-01
 -1.43652620D-01 -6.30712360D-02 -2.09456530D-01 -1.61374970D-01 -7.08523020D-02
  2.69723060D-01  2.07807070D-01  9.12384980D-02  1.13751350D-01 -4.98793100D-03
 -6.98759590D-03  9.06975810D-03  2.60794320D-03 -4.96634930D-04 -4.53628490D-04
  5.78753920D-04  8.23050230D-04 -4.36310120D-03 -7.21584320D-04  2.48179760D-03
 -2.16491990D-03 -1.26773710D-02  3.57255370D-02  6.05972730D-02  6.89878540D-02
 -8.28486000D-04  3.96712430D-02  5.83568820D-03 -5.51063900D-03  2.92692820D-02
  4.96462430D-02  5.65204930D-02  2.22482710D-04 -2.15712210D-02  1.70045310D-02
 -2.40310950D-02
MO    3                   OCC NO =    2.0000000  ORB. ENERGY =   -0.521802
 -6.57844990D-03 -1.21078600D-02 -1.95928020D-02 -2.57552870D-02 -2.20901600D-02
 -7.55300090D-03 -1.11757930D-02 -4.98661700D-03  1.47255470D-02  1.53591870D+00
  1.18334250D+00  5.19551110D-01 -2.89886500D-01 -2.23341920D-01 -9.80591320D-02
  4.77579850D-01  3.67949530D-01  1.61549660D-01  9.70766640D-03  6.63243160D-02
 -1.35617550D-02  2.20211150D-02  6.32798360D-04  1.14193270D-03 -1.56947770D-04
  2.76608910D-04 -2.08476860D-02  6.59634060D-03  1.35901300D-02 -2.63227670D-02
  3.28022300D-02 -1.84485480D-02 -5.23476540D-02 -8.87915290D-02 -1.01086020D-01
 -2.51815030D-02 -1.58146640D-02 -1.31005980D-02  1.66286040D-02  5.05970020D-02
  8.58220930D-02  9.77054190D-02  2.60202500D-02  2.06183770D-03  1.64637220D-02
 -2.19328870D-02
MO    4                   OCC NO =    2.0000000  ORB. ENERGY =   -0.408618
  7.10838740D-02  1.30832280D-01  2.11711320D-01  2.78300450D-01  2.38696680D-01
  8.16144490D-02  1.19829700D-01  5.34677800D-02 -1.57891070D-01 -6.04727750D-01
 -4.65910130D-01 -2.04559640D-01 -9.74230520D-01 -7.50592090D-01 -3.29550360D-01
  1.26980390D+00  9.78315460D-01  4.29533180D-01 -9.11420530D-02 -2.96003340D-02
 -4.88081860D-02  6.36566460D-02 -6.98068950D-03 -1.53586270D-03 -2.39970240D-03
  3.12505930D-03 -1.92767760D-03  5.95374440D-03  1.60895370D-02  2.03713070D-02
 -2.64905690D-02 -3.82780560D-02  3.13610970D-02  5.31943560D-02  6.05598940D-02
  1.91844940D-02  1.48867890D-02 -1.33429770D-02  1.87379610D-02  3.46961740D-02
  5.88512780D-02  6.70001000D-02  2.26726200D-02 -2.67947550D-02 -1.33928870D-03
  2.36342200D-04
MO    5                   OCC NO =    2.0000000  ORB. ENERGY =   -0.321645
  3.15588880D-09  5.80852010D-09  9.39928200D-09  1.23556190D-08  1.05973430D-08
  3.62341150D-09  4.04984400D-09  1.80703250D-09 -5.33619120D-09 -6.98163850D-02
 -5.37897610D-02 -2.36166020D-02  1.60873980D+00  1.23944730D+00  5.44184120D-01
  1.20102280D+00  9.25323310D-01  4.06266770D-01 -6.61641390D-09 -4.04482640D-03
  9.32026690D-02  6.95814980D-02 -8.96859690D-09 -2.87598700D-04  6.62699390D-03
  4.94745370D-03  7.83862650D-04 -2.46175890D-02  2.38337340D-02 -1.69937430D-02
 -1.48699370D-02  1.35461470D-02  2.71049940D-09  4.59751990D-09  5.23411390D-09
  9.72613040D-09 -1.30191970D-03  2.99995320D-02  2.23964860D-02  1.19832610D-09
  2.03258790D-09  2.31402950D-09  9.19662910D-09 -1.19372600D-03  2.75063110D-02
  2.05351430D-02
END DATA
 TOTAL ENERGY =      -76.429947804000 THE VIRIAL(-V/T)=   2.00949207
